
     Program PWSCF v.7.3.1 starts on 23Apr2025 at 17:45:52 

     This program is part of the open-source Quantum ESPRESSO suite
     for quantum simulation of materials; please cite
         "P. Giannozzi et al., J. Phys.:Condens. Matter 21 395502 (2009);
         "P. Giannozzi et al., J. Phys.:Condens. Matter 29 465901 (2017);
         "P. Giannozzi et al., J. Chem. Phys. 152 154105 (2020);
          URL http://www.quantum-espresso.org", 
     in publications or presentations arising from this work. More details at
     http://www.quantum-espresso.org/quote

     Parallel version (MPI & OpenMP), running on     128 processor cores
     Number of MPI processes:               128
     Threads/MPI process:                     1

     MPI processes distributed on     2 nodes
     1002813 MiB available memory on the printing compute node when the environment starts
 
     Waiting for input...
     Reading input from standard input
Warning: card &CELL ignored
Warning: card   PRESS = 0.0, ignored
Warning: card / ignored

     Current dimensions of program PWSCF are:
     Max number of different atomic species (ntypx) = 10
     Max number of k-points (npk) =  40000
     Max angular momentum in pseudopotentials (lmaxx) =  4

     IMPORTANT: XC functional enforced from input :
     Exchange-correlation= PBE
                           (   1   4   3   4   0   0   0)
     Any further DFT definition will be discarded
     Please, verify this is what you really want

 
     K-points division:     npool     =       4
     R & G space division:  proc/nbgrp/npool/nimage =      32
     Subspace diagonalization in iterative solution of the eigenvalue problem:
     a serial algorithm will be used

 
     Parallelization info
     --------------------
     sticks:   dense  smooth     PW     G-vecs:    dense   smooth      PW
     Min         100      50     14                 9624     3400     517
     Max         101      51     16                 9637     3407     525
     Sum        3217    1615    463               308159   108923   16645
 
     Using Slab Decomposition
 


     bravais-lattice index     =            4
     lattice parameter (alat)  =      12.0809  a.u.
     unit-cell volume          =    3186.3136 (a.u.)^3
     number of atoms/cell      =           20
     number of atomic types    =            4
     number of electrons       =       156.00
     number of Kohn-Sham states=           94
     kinetic-energy cutoff     =      40.0000  Ry
     charge density cutoff     =     320.0000  Ry
     scf convergence threshold =      1.0E-06
     mixing beta               =       0.1200
     number of iterations used =            8  plain     mixing
     Exchange-correlation= PBE
                           (   1   4   3   4   0   0   0)

     celldm(1)=  12.080900  celldm(2)=   0.000000  celldm(3)=   2.086700
     celldm(4)=   0.000000  celldm(5)=   0.000000  celldm(6)=   0.000000

     crystal axes: (cart. coord. in units of alat)
               a(1) = (   1.000000   0.000000   0.000000 )  
               a(2) = (  -0.500000   0.866025   0.000000 )  
               a(3) = (   0.000000   0.000000   2.086700 )  

     reciprocal axes: (cart. coord. in units 2 pi/alat)
               b(1) = (  1.000000  0.577350  0.000000 )  
               b(2) = (  0.000000  1.154701  0.000000 )  
               b(3) = (  0.000000  0.000000  0.479226 )  


     PseudoPot. # 1 for P  read from file:
     ./p_pbe_v1.5.uspp.F.UPF
     MD5 check sum: eb82b2c351da08c5f5f8709277dc7ee5
     Pseudo is Ultrasoft + core correction, Zval =  5.0
     Generated by new atomic code, or converted to UPF format
     Using radial grid of  903 points,  6 beta functions with: 
                l(1) =   0
                l(2) =   0
                l(3) =   1
                l(4) =   1
                l(5) =   2
                l(6) =   2
     Q(r) pseudized with  8 coefficients,  rinner =    1.300   1.300   1.300
                                                       1.300   1.300

     PseudoPot. # 2 for Cu read from file:
     ./cu_pbe_v1.2.uspp.F.UPF
     MD5 check sum: 6e991ff952a84172a2a52a1c1e996048
     Pseudo is Ultrasoft + core correction, Zval = 19.0
     Generated by new atomic code, or converted to UPF format
     Using radial grid of  867 points,  6 beta functions with: 
                l(1) =   0
                l(2) =   0
                l(3) =   1
                l(4) =   1
                l(5) =   2
                l(6) =   2
     Q(r) pseudized with  8 coefficients,  rinner =    1.150   1.150   1.150
                                                       1.150   1.150

     PseudoPot. # 3 for In read from file:
     ./in_pbe_v1.4.uspp.F.UPF
     MD5 check sum: 90777abd96fbb83f2e67db2a40c566b9
     Pseudo is Ultrasoft + core correction, Zval = 13.0
     Generated by new atomic code, or converted to UPF format
     Using radial grid of  889 points,  6 beta functions with: 
                l(1) =   0
                l(2) =   0
                l(3) =   1
                l(4) =   1
                l(5) =   2
                l(6) =   2
     Q(r) pseudized with  6 coefficients,  rinner =    1.400   1.400   1.400
                                                       1.400   1.400

     PseudoPot. # 4 for Se read from file:
     ./se_pbe_v1.uspp.F.UPF
     MD5 check sum: 1b3568f3a8ae88f9a2a0ad0698632c85
     Pseudo is Ultrasoft + core correction, Zval =  6.0
     Generated by new atomic code, or converted to UPF format
     Using radial grid of  877 points,  6 beta functions with: 
                l(1) =   0
                l(2) =   0
                l(3) =   1
                l(4) =   1
                l(5) =   2
                l(6) =   2
     Q(r) pseudized with  8 coefficients,  rinner =    1.300   1.300   1.300
                                                       1.300   1.300

     atomic species   valence    mass     pseudopotential
     P                 5.00    30.97400     P ( 1.00)
     Cu               19.00    63.54600     Cu( 1.00)
     In               13.00   114.81800     In( 1.00)
     Se                6.00    78.97100     Se( 1.00)

     No symmetry found



   Cartesian axes

     site n.     atom                  positions (alat units)
         1        Cu     tau(   1) = (   0.5000500   0.2886463   0.6021781  )
         2        Cu     tau(   2) = (  -0.0000500   0.5773791   1.7224673  )
         3        In     tau(   3) = (   0.0000000   0.0000000   0.4919854  )
         4        In     tau(   4) = (   0.0000000   0.0000000   1.5950384  )
         5        P      tau(   5) = (  -0.0000500   0.5773791   0.3311650  )
         6        P      tau(   6) = (  -0.0000500   0.5773791   0.6820023  )
         7        P      tau(   7) = (   0.5000500   0.2886463  -0.3543080  )
         8        P      tau(   8) = (   0.5000500   0.2886463   1.3786270  )
         9        Se     tau(   9) = (  -0.1605500   0.2945352   0.2804897  )
        10        Se     tau(  10) = (  -0.1748000  -0.2863080   0.2617844  )
        11        Se     tau(  11) = (   0.3353500  -0.0082272   0.2339291  )
        12        Se     tau(  12) = (  -0.3353500  -0.0082272   0.8187980  )
        13        Se     tau(  13) = (   0.1605500   0.2945352   0.7797475  )
        14        Se     tau(  14) = (   0.1748000  -0.2863080   0.8063973  )
        15        Se     tau(  15) = (   0.1605500  -0.2945352  -0.2343209  )
        16        Se     tau(  16) = (   0.1748000   0.2863080  -0.2252869  )
        17        Se     tau(  17) = (  -0.3353500   0.0082272  -0.2725186  )
        18        Se     tau(  18) = (   0.3353500   0.0082272   1.2795432  )
        19        Se     tau(  19) = (  -0.1605500  -0.2945352   1.2542611  )
        20        Se     tau(  20) = (  -0.1748000   0.2863080   1.2590101  )

     -------------------------------------------------
     Parameters for Dispersion (Grimme-D2) Correction:
     -------------------------------------------------
       atom      VdW radius       C_6     

        P          3.222        271.980
        Cu         2.952        374.666
        In         3.160       1294.678
        Se         3.347        438.498

     number of k points=   324  Gaussian smearing, width (Ry)=  0.0200

     Number of k-points >= 100: set verbosity='high' to print them.

     Dense  grid:   308159 G-vectors     FFT dimensions: (  72,  72, 144)

     Smooth grid:   108923 G-vectors     FFT dimensions: (  50,  50, 108)

     Estimated max dynamical RAM per process >      72.07 MB

     Estimated total dynamical RAM >       8.79 GB

     Initial potential from superposition of free atoms

     starting charge     150.9985, renormalised to     156.0000
     Starting wfcs are  108 randomized atomic wfcs

     total cpu time spent up to now is        3.4 secs

     per-process dynamical memory:    91.0 Mb

     Self-consistent Calculation

     iteration #  1     ecut=    40.00 Ry     beta= 0.12
     Davidson diagonalization with overlap
     ethr =  1.00E-02,  avg # of iterations =  2.8

     total cpu time spent up to now is       13.7 secs

     total energy              =   -1660.43009442 Ry
     estimated scf accuracy    <       2.27713660 Ry

     iteration #  2     ecut=    40.00 Ry     beta= 0.12
     Davidson diagonalization with overlap
     ethr =  1.46E-03,  avg # of iterations =  2.0

     total cpu time spent up to now is       21.6 secs

     total energy              =   -1660.30739914 Ry
     estimated scf accuracy    <       1.15697239 Ry

     iteration #  3     ecut=    40.00 Ry     beta= 0.12
     Davidson diagonalization with overlap
     ethr =  7.42E-04,  avg # of iterations =  2.2

     total cpu time spent up to now is       29.1 secs

     total energy              =   -1660.18873373 Ry
     estimated scf accuracy    <       0.41435298 Ry

     iteration #  4     ecut=    40.00 Ry     beta= 0.12
     Davidson diagonalization with overlap
     ethr =  2.66E-04,  avg # of iterations =  9.5

     total cpu time spent up to now is       44.9 secs

     total energy              =   -1660.24966530 Ry
     estimated scf accuracy    <       0.09769460 Ry

     iteration #  5     ecut=    40.00 Ry     beta= 0.12
     Davidson diagonalization with overlap
     c_bands:  1 eigenvalues not converged
     ethr =  6.26E-05,  avg # of iterations =  3.4

     total cpu time spent up to now is       54.3 secs

     total energy              =   -1660.24842756 Ry
     estimated scf accuracy    <       0.04171783 Ry

     iteration #  6     ecut=    40.00 Ry     beta= 0.12
     Davidson diagonalization with overlap
     ethr =  2.67E-05,  avg # of iterations =  5.0

     total cpu time spent up to now is       67.0 secs

     total energy              =   -1660.23754875 Ry
     estimated scf accuracy    <       0.03454662 Ry

     iteration #  7     ecut=    40.00 Ry     beta= 0.12
     Davidson diagonalization with overlap
     ethr =  2.21E-05,  avg # of iterations =  4.6

     total cpu time spent up to now is       78.4 secs

     total energy              =   -1660.24294783 Ry
     estimated scf accuracy    <       0.10590784 Ry

     iteration #  8     ecut=    40.00 Ry     beta= 0.12
     Davidson diagonalization with overlap
     ethr =  2.21E-05,  avg # of iterations =  3.0

     total cpu time spent up to now is       86.7 secs

     total energy              =   -1660.24438251 Ry
     estimated scf accuracy    <       0.01261030 Ry

     iteration #  9     ecut=    40.00 Ry     beta= 0.12
     Davidson diagonalization with overlap
     c_bands:  1 eigenvalues not converged
     ethr =  8.08E-06,  avg # of iterations =  6.0

     total cpu time spent up to now is      100.0 secs

     total energy              =   -1660.24932300 Ry
     estimated scf accuracy    <       0.04277312 Ry

     iteration # 10     ecut=    40.00 Ry     beta= 0.12
     Davidson diagonalization with overlap
     ethr =  8.08E-06,  avg # of iterations =  2.1

     total cpu time spent up to now is      107.2 secs

     total energy              =   -1660.24841596 Ry
     estimated scf accuracy    <       0.01046172 Ry

     iteration # 11     ecut=    40.00 Ry     beta= 0.12
     Davidson diagonalization with overlap
     ethr =  6.71E-06,  avg # of iterations =  2.8

     total cpu time spent up to now is      114.9 secs

     total energy              =   -1660.24978054 Ry
     estimated scf accuracy    <       0.00020778 Ry

     iteration # 12     ecut=    40.00 Ry     beta= 0.12
     Davidson diagonalization with overlap
     c_bands:  1 eigenvalues not converged
     c_bands:  1 eigenvalues not converged
     c_bands:  1 eigenvalues not converged
     ethr =  1.33E-07,  avg # of iterations =  7.2

     total cpu time spent up to now is      132.1 secs

     total energy              =   -1660.24992845 Ry
     estimated scf accuracy    <       0.00007361 Ry

     iteration # 13     ecut=    40.00 Ry     beta= 0.12
     Davidson diagonalization with overlap
     ethr =  4.72E-08,  avg # of iterations =  2.0

     total cpu time spent up to now is      139.4 secs

     total energy              =   -1660.24992905 Ry
     estimated scf accuracy    <       0.00002687 Ry

     iteration # 14     ecut=    40.00 Ry     beta= 0.12
     Davidson diagonalization with overlap
     ethr =  1.72E-08,  avg # of iterations =  4.3

     total cpu time spent up to now is      150.5 secs

     total energy              =   -1660.24992033 Ry
     estimated scf accuracy    <       0.00017913 Ry

     iteration # 15     ecut=    40.00 Ry     beta= 0.12
     Davidson diagonalization with overlap
     ethr =  1.72E-08,  avg # of iterations =  4.2

     total cpu time spent up to now is      161.3 secs

     total energy              =   -1660.24995027 Ry
     estimated scf accuracy    <       0.00000646 Ry

     iteration # 16     ecut=    40.00 Ry     beta= 0.12
     Davidson diagonalization with overlap
     ethr =  4.14E-09,  avg # of iterations =  3.5

     total cpu time spent up to now is      170.6 secs

     total energy              =   -1660.24995463 Ry
     estimated scf accuracy    <       0.00000209 Ry

     iteration # 17     ecut=    40.00 Ry     beta= 0.12
     Davidson diagonalization with overlap
     ethr =  1.34E-09,  avg # of iterations =  4.5

     total cpu time spent up to now is      179.9 secs

     End of self-consistent calculation

     Number of k-points >= 100: set verbosity='high' to print the bands.

     the Fermi energy is     6.8796 ev

!    total energy              =   -1660.24996448 Ry
     estimated scf accuracy    <       0.00000018 Ry
     smearing contrib. (-TS)   =      -0.00174218 Ry
     internal energy E=F+TS    =   -1660.24822230 Ry

     The total energy is F=E-TS. E is the sum of the following terms:
     one-electron contribution =   -1082.71912680 Ry
     hartree contribution      =     616.95929194 Ry
     xc contribution           =    -533.73684479 Ry
     ewald contribution        =    -660.48766953 Ry
     Dispersion Correction     =      -0.26387312 Ry

     convergence has been achieved in  17 iterations

     Writing all to output data dir ./test.save/ :
     XML data file, charge density, pseudopotentials, collected wavefunctions
 
     init_run     :      3.03s CPU      3.12s WALL (       1 calls)
     electrons    :    174.67s CPU    176.56s WALL (       1 calls)

     Called by init_run:
     wfcinit      :      2.87s CPU      2.94s WALL (       1 calls)
     potinit      :      0.04s CPU      0.04s WALL (       1 calls)
     hinit0       :      0.03s CPU      0.04s WALL (       1 calls)

     Called by electrons:
     c_bands      :    159.11s CPU    160.60s WALL (      17 calls)
     sum_band     :     15.02s CPU     15.33s WALL (      17 calls)
     v_of_rho     :      0.15s CPU      0.16s WALL (      18 calls)
     newd         :      0.33s CPU      0.35s WALL (      18 calls)
     mix_rho      :      0.02s CPU      0.03s WALL (      17 calls)
     energy_londo :      0.03s CPU      0.03s WALL (       1 calls)

     Called by c_bands:
     init_us_2    :      2.19s CPU      2.23s WALL (    2835 calls)
     cegterg      :    133.47s CPU    134.78s WALL (    1377 calls)

     Called by *egterg:
     cdiaghg      :     46.69s CPU     46.85s WALL (    7121 calls)
     h_psi        :     63.33s CPU     64.38s WALL (    7202 calls)
     s_psi        :      7.90s CPU      7.96s WALL (    7202 calls)
     g_psi        :      0.30s CPU      0.30s WALL (    5744 calls)

     Called by h_psi:
     h_psi:calbec :      8.13s CPU      8.22s WALL (    7202 calls)
     vloc_psi     :     46.77s CPU     47.67s WALL (    7202 calls)
     add_vuspsi   :      7.96s CPU      8.02s WALL (    7202 calls)

     General routines
     calbec       :     10.80s CPU     10.91s WALL (    8579 calls)
     fft          :      0.07s CPU      0.08s WALL (     232 calls)
     ffts         :      0.01s CPU      0.01s WALL (      35 calls)
     fftw         :     47.96s CPU     48.89s WALL (  813760 calls)
     interpolate  :      0.01s CPU      0.01s WALL (      18 calls)
 
     Parallel routines
 
     PWSCF        :    179.15s CPU    194.23s WALL

 
   This run was terminated on:  17:49: 6  23Apr2025            

=------------------------------------------------------------------------------=
   JOB DONE.
=------------------------------------------------------------------------------=
