
     Program PWSCF v.7.3.1 starts on 23Apr2025 at 19:26:11 

     This program is part of the open-source Quantum ESPRESSO suite
     for quantum simulation of materials; please cite
         "P. Giannozzi et al., J. Phys.:Condens. Matter 21 395502 (2009);
         "P. Giannozzi et al., J. Phys.:Condens. Matter 29 465901 (2017);
         "P. Giannozzi et al., J. Chem. Phys. 152 154105 (2020);
          URL http://www.quantum-espresso.org", 
     in publications or presentations arising from this work. More details at
     http://www.quantum-espresso.org/quote

     Parallel version (MPI & OpenMP), running on     128 processor cores
     Number of MPI processes:               128
     Threads/MPI process:                     1

     MPI processes distributed on     2 nodes
     1002784 MiB available memory on the printing compute node when the environment starts
 
     Waiting for input...
     Reading input from standard input
Warning: card &CELL ignored
Warning: card   PRESS = 0.0, ignored
Warning: card / ignored

     Current dimensions of program PWSCF are:
     Max number of different atomic species (ntypx) = 10
     Max number of k-points (npk) =  40000
     Max angular momentum in pseudopotentials (lmaxx) =  4

     IMPORTANT: XC functional enforced from input :
     Exchange-correlation= PBE
                           (   1   4   3   4   0   0   0)
     Any further DFT definition will be discarded
     Please, verify this is what you really want

 
     K-points division:     npool     =       4
     R & G space division:  proc/nbgrp/npool/nimage =      32
     Subspace diagonalization in iterative solution of the eigenvalue problem:
     a serial algorithm will be used

 
     Parallelization info
     --------------------
     sticks:   dense  smooth     PW     G-vecs:    dense   smooth      PW
     Min         100      50     14                 9624     3400     517
     Max         101      51     16                 9637     3407     525
     Sum        3217    1615    463               308159   108923   16645
 
     Using Slab Decomposition
 


     bravais-lattice index     =            4
     lattice parameter (alat)  =      12.0809  a.u.
     unit-cell volume          =    3186.3136 (a.u.)^3
     number of atoms/cell      =           20
     number of atomic types    =            4
     number of electrons       =       156.00
     number of Kohn-Sham states=           94
     kinetic-energy cutoff     =      40.0000  Ry
     charge density cutoff     =     320.0000  Ry
     scf convergence threshold =      1.0E-06
     mixing beta               =       0.1200
     number of iterations used =            8  plain     mixing
     Exchange-correlation= PBE
                           (   1   4   3   4   0   0   0)

     celldm(1)=  12.080900  celldm(2)=   0.000000  celldm(3)=   2.086700
     celldm(4)=   0.000000  celldm(5)=   0.000000  celldm(6)=   0.000000

     crystal axes: (cart. coord. in units of alat)
               a(1) = (   1.000000   0.000000   0.000000 )  
               a(2) = (  -0.500000   0.866025   0.000000 )  
               a(3) = (   0.000000   0.000000   2.086700 )  

     reciprocal axes: (cart. coord. in units 2 pi/alat)
               b(1) = (  1.000000  0.577350  0.000000 )  
               b(2) = (  0.000000  1.154701  0.000000 )  
               b(3) = (  0.000000  0.000000  0.479226 )  


     PseudoPot. # 1 for P  read from file:
     ./p_pbe_v1.5.uspp.F.UPF
     MD5 check sum: eb82b2c351da08c5f5f8709277dc7ee5
     Pseudo is Ultrasoft + core correction, Zval =  5.0
     Generated by new atomic code, or converted to UPF format
     Using radial grid of  903 points,  6 beta functions with: 
                l(1) =   0
                l(2) =   0
                l(3) =   1
                l(4) =   1
                l(5) =   2
                l(6) =   2
     Q(r) pseudized with  8 coefficients,  rinner =    1.300   1.300   1.300
                                                       1.300   1.300

     PseudoPot. # 2 for Cu read from file:
     ./cu_pbe_v1.2.uspp.F.UPF
     MD5 check sum: 6e991ff952a84172a2a52a1c1e996048
     Pseudo is Ultrasoft + core correction, Zval = 19.0
     Generated by new atomic code, or converted to UPF format
     Using radial grid of  867 points,  6 beta functions with: 
                l(1) =   0
                l(2) =   0
                l(3) =   1
                l(4) =   1
                l(5) =   2
                l(6) =   2
     Q(r) pseudized with  8 coefficients,  rinner =    1.150   1.150   1.150
                                                       1.150   1.150

     PseudoPot. # 3 for In read from file:
     ./in_pbe_v1.4.uspp.F.UPF
     MD5 check sum: 90777abd96fbb83f2e67db2a40c566b9
     Pseudo is Ultrasoft + core correction, Zval = 13.0
     Generated by new atomic code, or converted to UPF format
     Using radial grid of  889 points,  6 beta functions with: 
                l(1) =   0
                l(2) =   0
                l(3) =   1
                l(4) =   1
                l(5) =   2
                l(6) =   2
     Q(r) pseudized with  6 coefficients,  rinner =    1.400   1.400   1.400
                                                       1.400   1.400

     PseudoPot. # 4 for Se read from file:
     ./se_pbe_v1.uspp.F.UPF
     MD5 check sum: 1b3568f3a8ae88f9a2a0ad0698632c85
     Pseudo is Ultrasoft + core correction, Zval =  6.0
     Generated by new atomic code, or converted to UPF format
     Using radial grid of  877 points,  6 beta functions with: 
                l(1) =   0
                l(2) =   0
                l(3) =   1
                l(4) =   1
                l(5) =   2
                l(6) =   2
     Q(r) pseudized with  8 coefficients,  rinner =    1.300   1.300   1.300
                                                       1.300   1.300

     atomic species   valence    mass     pseudopotential
     P                 5.00    30.97400     P ( 1.00)
     Cu               19.00    63.54600     Cu( 1.00)
     In               13.00   114.81800     In( 1.00)
     Se                6.00    78.97100     Se( 1.00)

     No symmetry found



   Cartesian axes

     site n.     atom                  positions (alat units)
         1        Cu     tau(   1) = (   0.5000500   0.2886463   0.4146264  )
         2        Cu     tau(   2) = (  -0.0000500   0.5773791   1.5366464  )
         3        In     tau(   3) = (   0.0000000   0.0000000   0.5312375  )
         4        In     tau(   4) = (   0.0000000   0.0000000   1.5914574  )
         5        P      tau(   5) = (  -0.0000500   0.5773791   0.3336153  )
         6        P      tau(   6) = (  -0.0000500   0.5773791   0.6940764  )
         7        P      tau(   7) = (   0.5000500   0.2886463  -0.3603496  )
         8        P      tau(   8) = (   0.5000500   0.2886463   1.3957936  )
         9        Se     tau(   9) = (  -0.1605500   0.2945352   0.2227986  )
        10        Se     tau(  10) = (  -0.1748000  -0.2863080   0.2875737  )
        11        Se     tau(  11) = (   0.3353500  -0.0082272   0.2862714  )
        12        Se     tau(  12) = (  -0.3353500  -0.0082272   0.7872584  )
        13        Se     tau(  13) = (   0.1605500   0.2945352   0.7858433  )
        14        Se     tau(  14) = (   0.1748000  -0.2863080   0.7903716  )
        15        Se     tau(  15) = (   0.1605500  -0.2945352  -0.2529443  )
        16        Se     tau(  16) = (   0.1748000   0.2863080  -0.2791034  )
        17        Se     tau(  17) = (  -0.3353500   0.0082272  -0.2114494  )
        18        Se     tau(  18) = (   0.3353500   0.0082272   1.2965402  )
        19        Se     tau(  19) = (  -0.1605500  -0.2945352   1.3328862  )
        20        Se     tau(  20) = (  -0.1748000   0.2863080   1.3276394  )

     -------------------------------------------------
     Parameters for Dispersion (Grimme-D2) Correction:
     -------------------------------------------------
       atom      VdW radius       C_6     

        P          3.222        271.980
        Cu         2.952        374.666
        In         3.160       1294.678
        Se         3.347        438.498

     number of k points=   324  Gaussian smearing, width (Ry)=  0.0200

     Number of k-points >= 100: set verbosity='high' to print them.

     Dense  grid:   308159 G-vectors     FFT dimensions: (  72,  72, 144)

     Smooth grid:   108923 G-vectors     FFT dimensions: (  50,  50, 108)

     Estimated max dynamical RAM per process >      72.07 MB

     Estimated total dynamical RAM >       8.79 GB

     Initial potential from superposition of free atoms

     starting charge     150.9985, renormalised to     156.0000
     Starting wfcs are  108 randomized atomic wfcs

     total cpu time spent up to now is        3.4 secs

     per-process dynamical memory:    91.0 Mb

     Self-consistent Calculation

     iteration #  1     ecut=    40.00 Ry     beta= 0.12
     Davidson diagonalization with overlap
     ethr =  1.00E-02,  avg # of iterations =  3.0

     total cpu time spent up to now is       13.4 secs

     total energy              =   -1660.42545514 Ry
     estimated scf accuracy    <       2.09224202 Ry

     iteration #  2     ecut=    40.00 Ry     beta= 0.12
     Davidson diagonalization with overlap
     ethr =  1.34E-03,  avg # of iterations =  2.0

     total cpu time spent up to now is       21.2 secs

     total energy              =   -1660.26127688 Ry
     estimated scf accuracy    <       1.11858004 Ry

     iteration #  3     ecut=    40.00 Ry     beta= 0.12
     Davidson diagonalization with overlap
     ethr =  7.17E-04,  avg # of iterations =  2.2

     total cpu time spent up to now is       28.5 secs

     total energy              =   -1660.19994587 Ry
     estimated scf accuracy    <       0.33072093 Ry

     iteration #  4     ecut=    40.00 Ry     beta= 0.12
     Davidson diagonalization with overlap
     ethr =  2.12E-04,  avg # of iterations = 10.1

     total cpu time spent up to now is       45.3 secs

     total energy              =   -1660.23353228 Ry
     estimated scf accuracy    <       0.08704741 Ry

     iteration #  5     ecut=    40.00 Ry     beta= 0.12
     Davidson diagonalization with overlap
     ethr =  5.58E-05,  avg # of iterations =  3.3

     total cpu time spent up to now is       54.2 secs

     total energy              =   -1660.24253776 Ry
     estimated scf accuracy    <       0.04305949 Ry

     iteration #  6     ecut=    40.00 Ry     beta= 0.12
     Davidson diagonalization with overlap
     ethr =  2.76E-05,  avg # of iterations =  1.7

     total cpu time spent up to now is       61.1 secs

     total energy              =   -1660.23868188 Ry
     estimated scf accuracy    <       0.01739810 Ry

     iteration #  7     ecut=    40.00 Ry     beta= 0.12
     Davidson diagonalization with overlap
     c_bands:  1 eigenvalues not converged
     c_bands:  1 eigenvalues not converged
     ethr =  1.12E-05,  avg # of iterations =  6.8

     total cpu time spent up to now is       76.1 secs

     total energy              =   -1660.23715935 Ry
     estimated scf accuracy    <       0.03206443 Ry

     iteration #  8     ecut=    40.00 Ry     beta= 0.12
     Davidson diagonalization with overlap
     ethr =  1.12E-05,  avg # of iterations =  4.0

     total cpu time spent up to now is       85.5 secs

     total energy              =   -1660.24212485 Ry
     estimated scf accuracy    <       0.00297400 Ry

     iteration #  9     ecut=    40.00 Ry     beta= 0.12
     Davidson diagonalization with overlap
     ethr =  1.91E-06,  avg # of iterations =  5.8

     total cpu time spent up to now is       97.9 secs

     total energy              =   -1660.24260759 Ry
     estimated scf accuracy    <       0.00023235 Ry

     iteration # 10     ecut=    40.00 Ry     beta= 0.12
     Davidson diagonalization with overlap
     ethr =  1.49E-07,  avg # of iterations =  6.0

     total cpu time spent up to now is      112.8 secs

     total energy              =   -1660.24269290 Ry
     estimated scf accuracy    <       0.00055158 Ry

     iteration # 11     ecut=    40.00 Ry     beta= 0.12
     Davidson diagonalization with overlap
     ethr =  1.49E-07,  avg # of iterations =  3.0

     total cpu time spent up to now is      121.6 secs

     total energy              =   -1660.24277340 Ry
     estimated scf accuracy    <       0.00002166 Ry

     iteration # 12     ecut=    40.00 Ry     beta= 0.12
     Davidson diagonalization with overlap
     ethr =  1.39E-08,  avg # of iterations =  4.5

     total cpu time spent up to now is      134.0 secs

     total energy              =   -1660.24277594 Ry
     estimated scf accuracy    <       0.00014424 Ry

     iteration # 13     ecut=    40.00 Ry     beta= 0.12
     Davidson diagonalization with overlap
     ethr =  1.39E-08,  avg # of iterations =  4.0

     total cpu time spent up to now is      143.5 secs

     total energy              =   -1660.24278968 Ry
     estimated scf accuracy    <       0.00001199 Ry

     iteration # 14     ecut=    40.00 Ry     beta= 0.12
     Davidson diagonalization with overlap
     ethr =  7.68E-09,  avg # of iterations =  2.0

     total cpu time spent up to now is      150.5 secs

     total energy              =   -1660.24279477 Ry
     estimated scf accuracy    <       0.00000236 Ry

     iteration # 15     ecut=    40.00 Ry     beta= 0.12
     Davidson diagonalization with overlap
     ethr =  1.51E-09,  avg # of iterations =  5.0

     total cpu time spent up to now is      160.2 secs

     End of self-consistent calculation

     Number of k-points >= 100: set verbosity='high' to print the bands.

     the Fermi energy is     6.8547 ev

!    total energy              =   -1660.24281104 Ry
     estimated scf accuracy    <       0.00000030 Ry
     smearing contrib. (-TS)   =      -0.00048509 Ry
     internal energy E=F+TS    =   -1660.24232596 Ry

     The total energy is F=E-TS. E is the sum of the following terms:
     one-electron contribution =   -1122.16590060 Ry
     hartree contribution      =     636.88503363 Ry
     xc contribution           =    -534.17649729 Ry
     ewald contribution        =    -640.52486686 Ry
     Dispersion Correction     =      -0.26009483 Ry

     convergence has been achieved in  15 iterations

     Writing all to output data dir ./test.save/ :
     XML data file, charge density, pseudopotentials, collected wavefunctions
 
     init_run     :      3.01s CPU      3.10s WALL (       1 calls)
     electrons    :    155.11s CPU    156.84s WALL (       1 calls)

     Called by init_run:
     wfcinit      :      2.86s CPU      2.93s WALL (       1 calls)
     potinit      :      0.03s CPU      0.04s WALL (       1 calls)
     hinit0       :      0.03s CPU      0.04s WALL (       1 calls)

     Called by electrons:
     c_bands      :    141.48s CPU    142.84s WALL (      15 calls)
     sum_band     :     13.16s CPU     13.42s WALL (      15 calls)
     v_of_rho     :      0.13s CPU      0.14s WALL (      16 calls)
     newd         :      0.29s CPU      0.31s WALL (      16 calls)
     mix_rho      :      0.02s CPU      0.02s WALL (      15 calls)
     energy_londo :      0.03s CPU      0.03s WALL (       1 calls)

     Called by c_bands:
     init_us_2    :      1.90s CPU      1.96s WALL (    2511 calls)
     cegterg      :    121.89s CPU    123.12s WALL (    1215 calls)

     Called by *egterg:
     cdiaghg      :     43.78s CPU     43.92s WALL (    6532 calls)
     h_psi        :     57.00s CPU     57.96s WALL (    6613 calls)
     s_psi        :      7.21s CPU      7.27s WALL (    6613 calls)
     g_psi        :      0.27s CPU      0.27s WALL (    5317 calls)

     Called by h_psi:
     h_psi:calbec :      7.36s CPU      7.45s WALL (    6613 calls)
     vloc_psi     :     41.96s CPU     42.77s WALL (    6613 calls)
     add_vuspsi   :      7.26s CPU      7.31s WALL (    6613 calls)

     General routines
     calbec       :      9.71s CPU      9.82s WALL (    7828 calls)
     fft          :      0.06s CPU      0.07s WALL (     206 calls)
     ffts         :      0.00s CPU      0.00s WALL (      31 calls)
     fftw         :     42.85s CPU     43.67s WALL (  731352 calls)
     interpolate  :      0.00s CPU      0.01s WALL (      16 calls)
 
     Parallel routines
 
     PWSCF        :    159.58s CPU    174.53s WALL

 
   This run was terminated on:  19:29: 5  23Apr2025            

=------------------------------------------------------------------------------=
   JOB DONE.
=------------------------------------------------------------------------------=
