
     Program PWSCF v.7.3.1 starts on 23Apr2025 at 18:13:32 

     This program is part of the open-source Quantum ESPRESSO suite
     for quantum simulation of materials; please cite
         "P. Giannozzi et al., J. Phys.:Condens. Matter 21 395502 (2009);
         "P. Giannozzi et al., J. Phys.:Condens. Matter 29 465901 (2017);
         "P. Giannozzi et al., J. Chem. Phys. 152 154105 (2020);
          URL http://www.quantum-espresso.org", 
     in publications or presentations arising from this work. More details at
     http://www.quantum-espresso.org/quote

     Parallel version (MPI & OpenMP), running on     128 processor cores
     Number of MPI processes:               128
     Threads/MPI process:                     1

     MPI processes distributed on     2 nodes
     1002838 MiB available memory on the printing compute node when the environment starts
 
     Waiting for input...
     Reading input from standard input
Warning: card &CELL ignored
Warning: card   PRESS = 0.0, ignored
Warning: card / ignored

     Current dimensions of program PWSCF are:
     Max number of different atomic species (ntypx) = 10
     Max number of k-points (npk) =  40000
     Max angular momentum in pseudopotentials (lmaxx) =  4

     IMPORTANT: XC functional enforced from input :
     Exchange-correlation= PBE
                           (   1   4   3   4   0   0   0)
     Any further DFT definition will be discarded
     Please, verify this is what you really want

 
     K-points division:     npool     =       4
     R & G space division:  proc/nbgrp/npool/nimage =      32
     Subspace diagonalization in iterative solution of the eigenvalue problem:
     a serial algorithm will be used

 
     Parallelization info
     --------------------
     sticks:   dense  smooth     PW     G-vecs:    dense   smooth      PW
     Min         100      50     14                 9624     3400     517
     Max         101      51     16                 9637     3407     525
     Sum        3217    1615    463               308159   108923   16645
 
     Using Slab Decomposition
 


     bravais-lattice index     =            4
     lattice parameter (alat)  =      12.0809  a.u.
     unit-cell volume          =    3186.3136 (a.u.)^3
     number of atoms/cell      =           20
     number of atomic types    =            4
     number of electrons       =       156.00
     number of Kohn-Sham states=           94
     kinetic-energy cutoff     =      40.0000  Ry
     charge density cutoff     =     320.0000  Ry
     scf convergence threshold =      1.0E-06
     mixing beta               =       0.1200
     number of iterations used =            8  plain     mixing
     Exchange-correlation= PBE
                           (   1   4   3   4   0   0   0)

     celldm(1)=  12.080900  celldm(2)=   0.000000  celldm(3)=   2.086700
     celldm(4)=   0.000000  celldm(5)=   0.000000  celldm(6)=   0.000000

     crystal axes: (cart. coord. in units of alat)
               a(1) = (   1.000000   0.000000   0.000000 )  
               a(2) = (  -0.500000   0.866025   0.000000 )  
               a(3) = (   0.000000   0.000000   2.086700 )  

     reciprocal axes: (cart. coord. in units 2 pi/alat)
               b(1) = (  1.000000  0.577350  0.000000 )  
               b(2) = (  0.000000  1.154701  0.000000 )  
               b(3) = (  0.000000  0.000000  0.479226 )  


     PseudoPot. # 1 for P  read from file:
     ./p_pbe_v1.5.uspp.F.UPF
     MD5 check sum: eb82b2c351da08c5f5f8709277dc7ee5
     Pseudo is Ultrasoft + core correction, Zval =  5.0
     Generated by new atomic code, or converted to UPF format
     Using radial grid of  903 points,  6 beta functions with: 
                l(1) =   0
                l(2) =   0
                l(3) =   1
                l(4) =   1
                l(5) =   2
                l(6) =   2
     Q(r) pseudized with  8 coefficients,  rinner =    1.300   1.300   1.300
                                                       1.300   1.300

     PseudoPot. # 2 for Cu read from file:
     ./cu_pbe_v1.2.uspp.F.UPF
     MD5 check sum: 6e991ff952a84172a2a52a1c1e996048
     Pseudo is Ultrasoft + core correction, Zval = 19.0
     Generated by new atomic code, or converted to UPF format
     Using radial grid of  867 points,  6 beta functions with: 
                l(1) =   0
                l(2) =   0
                l(3) =   1
                l(4) =   1
                l(5) =   2
                l(6) =   2
     Q(r) pseudized with  8 coefficients,  rinner =    1.150   1.150   1.150
                                                       1.150   1.150

     PseudoPot. # 3 for In read from file:
     ./in_pbe_v1.4.uspp.F.UPF
     MD5 check sum: 90777abd96fbb83f2e67db2a40c566b9
     Pseudo is Ultrasoft + core correction, Zval = 13.0
     Generated by new atomic code, or converted to UPF format
     Using radial grid of  889 points,  6 beta functions with: 
                l(1) =   0
                l(2) =   0
                l(3) =   1
                l(4) =   1
                l(5) =   2
                l(6) =   2
     Q(r) pseudized with  6 coefficients,  rinner =    1.400   1.400   1.400
                                                       1.400   1.400

     PseudoPot. # 4 for Se read from file:
     ./se_pbe_v1.uspp.F.UPF
     MD5 check sum: 1b3568f3a8ae88f9a2a0ad0698632c85
     Pseudo is Ultrasoft + core correction, Zval =  6.0
     Generated by new atomic code, or converted to UPF format
     Using radial grid of  877 points,  6 beta functions with: 
                l(1) =   0
                l(2) =   0
                l(3) =   1
                l(4) =   1
                l(5) =   2
                l(6) =   2
     Q(r) pseudized with  8 coefficients,  rinner =    1.300   1.300   1.300
                                                       1.300   1.300

     atomic species   valence    mass     pseudopotential
     P                 5.00    30.97400     P ( 1.00)
     Cu               19.00    63.54600     Cu( 1.00)
     In               13.00   114.81800     In( 1.00)
     Se                6.00    78.97100     Se( 1.00)

     No symmetry found



   Cartesian axes

     site n.     atom                  positions (alat units)
         1        Cu     tau(   1) = (   0.5000500   0.2886463   0.6443816  )
         2        Cu     tau(   2) = (  -0.0000500   0.5773791   1.7164499  )
         3        In     tau(   3) = (   0.0000000   0.0000000   0.5424181  )
         4        In     tau(   4) = (   0.0000000   0.0000000   1.5890134  )
         5        P      tau(   5) = (  -0.0000500   0.5773791   0.3426456  )
         6        P      tau(   6) = (  -0.0000500   0.5773791   0.6858109  )
         7        P      tau(   7) = (   0.5000500   0.2886463  -0.3558742  )
         8        P      tau(   8) = (   0.5000500   0.2886463   1.3794147  )
         9        Se     tau(   9) = (  -0.1605500   0.2945352   0.2705563  )
        10        Se     tau(  10) = (  -0.1748000  -0.2863080   0.2342973  )
        11        Se     tau(  11) = (   0.3353500  -0.0082272   0.2471401  )
        12        Se     tau(  12) = (  -0.3353500  -0.0082272   0.7816445  )
        13        Se     tau(  13) = (   0.1605500   0.2945352   0.7517352  )
        14        Se     tau(  14) = (   0.1748000  -0.2863080   0.7987994  )
        15        Se     tau(  15) = (   0.1605500  -0.2945352  -0.2739873  )
        16        Se     tau(  16) = (   0.1748000   0.2863080  -0.2240350  )
        17        Se     tau(  17) = (  -0.3353500   0.0082272  -0.2551404  )
        18        Se     tau(  18) = (   0.3353500   0.0082272   1.2588008  )
        19        Se     tau(  19) = (  -0.1605500  -0.2945352   1.3037631  )
        20        Se     tau(  20) = (  -0.1748000   0.2863080   1.3095245  )

     -------------------------------------------------
     Parameters for Dispersion (Grimme-D2) Correction:
     -------------------------------------------------
       atom      VdW radius       C_6     

        P          3.222        271.980
        Cu         2.952        374.666
        In         3.160       1294.678
        Se         3.347        438.498

     number of k points=   324  Gaussian smearing, width (Ry)=  0.0200

     Number of k-points >= 100: set verbosity='high' to print them.

     Dense  grid:   308159 G-vectors     FFT dimensions: (  72,  72, 144)

     Smooth grid:   108923 G-vectors     FFT dimensions: (  50,  50, 108)

     Estimated max dynamical RAM per process >      72.07 MB

     Estimated total dynamical RAM >       8.79 GB

     Initial potential from superposition of free atoms

     starting charge     150.9985, renormalised to     156.0000
     Starting wfcs are  108 randomized atomic wfcs

     total cpu time spent up to now is        3.4 secs

     per-process dynamical memory:    91.0 Mb

     Self-consistent Calculation

     iteration #  1     ecut=    40.00 Ry     beta= 0.12
     Davidson diagonalization with overlap
     ethr =  1.00E-02,  avg # of iterations =  3.0

     total cpu time spent up to now is       13.4 secs

     total energy              =   -1660.46295755 Ry
     estimated scf accuracy    <       1.96059450 Ry

     iteration #  2     ecut=    40.00 Ry     beta= 0.12
     Davidson diagonalization with overlap
     ethr =  1.26E-03,  avg # of iterations =  2.0

     total cpu time spent up to now is       21.2 secs

     total energy              =   -1660.23287276 Ry
     estimated scf accuracy    <       1.13388134 Ry

     iteration #  3     ecut=    40.00 Ry     beta= 0.12
     Davidson diagonalization with overlap
     ethr =  7.27E-04,  avg # of iterations =  2.9

     total cpu time spent up to now is       29.7 secs

     total energy              =   -1660.23338811 Ry
     estimated scf accuracy    <       0.24990006 Ry

     iteration #  4     ecut=    40.00 Ry     beta= 0.12
     Davidson diagonalization with overlap
     ethr =  1.60E-04,  avg # of iterations =  9.8

     total cpu time spent up to now is       45.9 secs

     total energy              =   -1660.23652733 Ry
     estimated scf accuracy    <       0.09767492 Ry

     iteration #  5     ecut=    40.00 Ry     beta= 0.12
     Davidson diagonalization with overlap
     ethr =  6.26E-05,  avg # of iterations =  4.2

     total cpu time spent up to now is       56.9 secs

     total energy              =   -1660.23543917 Ry
     estimated scf accuracy    <       0.21509678 Ry

     iteration #  6     ecut=    40.00 Ry     beta= 0.12
     Davidson diagonalization with overlap
     ethr =  6.26E-05,  avg # of iterations =  3.0

     total cpu time spent up to now is       65.1 secs

     total energy              =   -1660.25724538 Ry
     estimated scf accuracy    <       0.01413476 Ry

     iteration #  7     ecut=    40.00 Ry     beta= 0.12
     Davidson diagonalization with overlap
     c_bands:  1 eigenvalues not converged
     ethr =  9.06E-06,  avg # of iterations =  4.4

     total cpu time spent up to now is       77.4 secs

     total energy              =   -1660.25751341 Ry
     estimated scf accuracy    <       0.00679692 Ry

     iteration #  8     ecut=    40.00 Ry     beta= 0.12
     Davidson diagonalization with overlap
     c_bands:  1 eigenvalues not converged
     c_bands:  1 eigenvalues not converged
     c_bands:  1 eigenvalues not converged
     ethr =  4.36E-06,  avg # of iterations =  4.8

     total cpu time spent up to now is       90.2 secs

     total energy              =   -1660.25854506 Ry
     estimated scf accuracy    <       0.00068699 Ry

     iteration #  9     ecut=    40.00 Ry     beta= 0.12
     Davidson diagonalization with overlap
     ethr =  4.40E-07,  avg # of iterations =  5.7

     total cpu time spent up to now is      102.9 secs

     total energy              =   -1660.25858590 Ry
     estimated scf accuracy    <       0.00045317 Ry

     iteration # 10     ecut=    40.00 Ry     beta= 0.12
     Davidson diagonalization with overlap
     ethr =  2.90E-07,  avg # of iterations =  3.5

     total cpu time spent up to now is      112.8 secs

     total energy              =   -1660.25867434 Ry
     estimated scf accuracy    <       0.00025473 Ry

     iteration # 11     ecut=    40.00 Ry     beta= 0.12
     Davidson diagonalization with overlap
     ethr =  1.63E-07,  avg # of iterations =  3.1

     total cpu time spent up to now is      122.1 secs

     total energy              =   -1660.25874194 Ry
     estimated scf accuracy    <       0.00009773 Ry

     iteration # 12     ecut=    40.00 Ry     beta= 0.12
     Davidson diagonalization with overlap
     ethr =  6.26E-08,  avg # of iterations =  5.4

     total cpu time spent up to now is      133.4 secs

     total energy              =   -1660.25877925 Ry
     estimated scf accuracy    <       0.00000528 Ry

     iteration # 13     ecut=    40.00 Ry     beta= 0.12
     Davidson diagonalization with overlap
     ethr =  3.39E-09,  avg # of iterations =  6.1

     total cpu time spent up to now is      152.0 secs

     total energy              =   -1660.25879019 Ry
     estimated scf accuracy    <       0.00000351 Ry

     iteration # 14     ecut=    40.00 Ry     beta= 0.12
     Davidson diagonalization with overlap
     ethr =  2.25E-09,  avg # of iterations =  3.2

     total cpu time spent up to now is      161.1 secs

     total energy              =   -1660.25879545 Ry
     estimated scf accuracy    <       0.00000326 Ry

     iteration # 15     ecut=    40.00 Ry     beta= 0.12
     Davidson diagonalization with overlap
     ethr =  2.09E-09,  avg # of iterations =  1.2

     total cpu time spent up to now is      167.6 secs

     End of self-consistent calculation

     Number of k-points >= 100: set verbosity='high' to print the bands.

     the Fermi energy is     6.7445 ev

!    total energy              =   -1660.25881099 Ry
     estimated scf accuracy    <       0.00000083 Ry
     smearing contrib. (-TS)   =      -0.00033641 Ry
     internal energy E=F+TS    =   -1660.25847458 Ry

     The total energy is F=E-TS. E is the sum of the following terms:
     one-electron contribution =   -1106.89319428 Ry
     hartree contribution      =     628.40074314 Ry
     xc contribution           =    -534.07568176 Ry
     ewald contribution        =    -647.42503438 Ry
     Dispersion Correction     =      -0.26530731 Ry

     convergence has been achieved in  15 iterations

     Writing all to output data dir ./test.save/ :
     XML data file, charge density, pseudopotentials, collected wavefunctions
 
     init_run     :      3.01s CPU      3.10s WALL (       1 calls)
     electrons    :    162.41s CPU    164.25s WALL (       1 calls)

     Called by init_run:
     wfcinit      :      2.87s CPU      2.92s WALL (       1 calls)
     potinit      :      0.01s CPU      0.02s WALL (       1 calls)
     hinit0       :      0.04s CPU      0.06s WALL (       1 calls)

     Called by electrons:
     c_bands      :    148.73s CPU    150.21s WALL (      15 calls)
     sum_band     :     13.21s CPU     13.47s WALL (      15 calls)
     v_of_rho     :      0.13s CPU      0.14s WALL (      16 calls)
     newd         :      0.28s CPU      0.31s WALL (      16 calls)
     mix_rho      :      0.01s CPU      0.02s WALL (      15 calls)
     energy_londo :      0.03s CPU      0.03s WALL (       1 calls)

     Called by c_bands:
     init_us_2    :      2.02s CPU      2.08s WALL (    2511 calls)
     cegterg      :    124.09s CPU    125.42s WALL (    1215 calls)

     Called by *egterg:
     cdiaghg      :     44.61s CPU     44.79s WALL (    6456 calls)
     h_psi        :     58.25s CPU     59.27s WALL (    6537 calls)
     s_psi        :      7.25s CPU      7.31s WALL (    6537 calls)
     g_psi        :      0.28s CPU      0.28s WALL (    5241 calls)

     Called by h_psi:
     h_psi:calbec :      7.47s CPU      7.56s WALL (    6537 calls)
     vloc_psi     :     42.97s CPU     43.85s WALL (    6537 calls)
     add_vuspsi   :      7.39s CPU      7.45s WALL (    6537 calls)

     General routines
     calbec       :      9.81s CPU      9.92s WALL (    7752 calls)
     fft          :      0.06s CPU      0.07s WALL (     206 calls)
     ffts         :      0.00s CPU      0.01s WALL (      31 calls)
     fftw         :     43.73s CPU     44.61s WALL (  744394 calls)
     interpolate  :      0.01s CPU      0.01s WALL (      16 calls)
 
     Parallel routines
 
     PWSCF        :    166.84s CPU    181.90s WALL

 
   This run was terminated on:  18:16:34  23Apr2025            

=------------------------------------------------------------------------------=
   JOB DONE.
=------------------------------------------------------------------------------=
