
     Program PWSCF v.7.3.1 starts on 23Apr2025 at 19:35:47 

     This program is part of the open-source Quantum ESPRESSO suite
     for quantum simulation of materials; please cite
         "P. Giannozzi et al., J. Phys.:Condens. Matter 21 395502 (2009);
         "P. Giannozzi et al., J. Phys.:Condens. Matter 29 465901 (2017);
         "P. Giannozzi et al., J. Chem. Phys. 152 154105 (2020);
          URL http://www.quantum-espresso.org", 
     in publications or presentations arising from this work. More details at
     http://www.quantum-espresso.org/quote

     Parallel version (MPI & OpenMP), running on     128 processor cores
     Number of MPI processes:               128
     Threads/MPI process:                     1

     MPI processes distributed on     2 nodes
     1002813 MiB available memory on the printing compute node when the environment starts
 
     Waiting for input...
     Reading input from standard input
Warning: card &CELL ignored
Warning: card   PRESS = 0.0, ignored
Warning: card / ignored

     Current dimensions of program PWSCF are:
     Max number of different atomic species (ntypx) = 10
     Max number of k-points (npk) =  40000
     Max angular momentum in pseudopotentials (lmaxx) =  4

     IMPORTANT: XC functional enforced from input :
     Exchange-correlation= PBE
                           (   1   4   3   4   0   0   0)
     Any further DFT definition will be discarded
     Please, verify this is what you really want

 
     K-points division:     npool     =       4
     R & G space division:  proc/nbgrp/npool/nimage =      32
     Subspace diagonalization in iterative solution of the eigenvalue problem:
     a serial algorithm will be used

 
     Parallelization info
     --------------------
     sticks:   dense  smooth     PW     G-vecs:    dense   smooth      PW
     Min         100      50     14                 9624     3400     517
     Max         101      51     16                 9637     3407     525
     Sum        3217    1615    463               308159   108923   16645
 
     Using Slab Decomposition
 


     bravais-lattice index     =            4
     lattice parameter (alat)  =      12.0809  a.u.
     unit-cell volume          =    3186.3136 (a.u.)^3
     number of atoms/cell      =           20
     number of atomic types    =            4
     number of electrons       =       156.00
     number of Kohn-Sham states=           94
     kinetic-energy cutoff     =      40.0000  Ry
     charge density cutoff     =     320.0000  Ry
     scf convergence threshold =      1.0E-06
     mixing beta               =       0.1200
     number of iterations used =            8  plain     mixing
     Exchange-correlation= PBE
                           (   1   4   3   4   0   0   0)

     celldm(1)=  12.080900  celldm(2)=   0.000000  celldm(3)=   2.086700
     celldm(4)=   0.000000  celldm(5)=   0.000000  celldm(6)=   0.000000

     crystal axes: (cart. coord. in units of alat)
               a(1) = (   1.000000   0.000000   0.000000 )  
               a(2) = (  -0.500000   0.866025   0.000000 )  
               a(3) = (   0.000000   0.000000   2.086700 )  

     reciprocal axes: (cart. coord. in units 2 pi/alat)
               b(1) = (  1.000000  0.577350  0.000000 )  
               b(2) = (  0.000000  1.154701  0.000000 )  
               b(3) = (  0.000000  0.000000  0.479226 )  


     PseudoPot. # 1 for P  read from file:
     ./p_pbe_v1.5.uspp.F.UPF
     MD5 check sum: eb82b2c351da08c5f5f8709277dc7ee5
     Pseudo is Ultrasoft + core correction, Zval =  5.0
     Generated by new atomic code, or converted to UPF format
     Using radial grid of  903 points,  6 beta functions with: 
                l(1) =   0
                l(2) =   0
                l(3) =   1
                l(4) =   1
                l(5) =   2
                l(6) =   2
     Q(r) pseudized with  8 coefficients,  rinner =    1.300   1.300   1.300
                                                       1.300   1.300

     PseudoPot. # 2 for Cu read from file:
     ./cu_pbe_v1.2.uspp.F.UPF
     MD5 check sum: 6e991ff952a84172a2a52a1c1e996048
     Pseudo is Ultrasoft + core correction, Zval = 19.0
     Generated by new atomic code, or converted to UPF format
     Using radial grid of  867 points,  6 beta functions with: 
                l(1) =   0
                l(2) =   0
                l(3) =   1
                l(4) =   1
                l(5) =   2
                l(6) =   2
     Q(r) pseudized with  8 coefficients,  rinner =    1.150   1.150   1.150
                                                       1.150   1.150

     PseudoPot. # 3 for In read from file:
     ./in_pbe_v1.4.uspp.F.UPF
     MD5 check sum: 90777abd96fbb83f2e67db2a40c566b9
     Pseudo is Ultrasoft + core correction, Zval = 13.0
     Generated by new atomic code, or converted to UPF format
     Using radial grid of  889 points,  6 beta functions with: 
                l(1) =   0
                l(2) =   0
                l(3) =   1
                l(4) =   1
                l(5) =   2
                l(6) =   2
     Q(r) pseudized with  6 coefficients,  rinner =    1.400   1.400   1.400
                                                       1.400   1.400

     PseudoPot. # 4 for Se read from file:
     ./se_pbe_v1.uspp.F.UPF
     MD5 check sum: 1b3568f3a8ae88f9a2a0ad0698632c85
     Pseudo is Ultrasoft + core correction, Zval =  6.0
     Generated by new atomic code, or converted to UPF format
     Using radial grid of  877 points,  6 beta functions with: 
                l(1) =   0
                l(2) =   0
                l(3) =   1
                l(4) =   1
                l(5) =   2
                l(6) =   2
     Q(r) pseudized with  8 coefficients,  rinner =    1.300   1.300   1.300
                                                       1.300   1.300

     atomic species   valence    mass     pseudopotential
     P                 5.00    30.97400     P ( 1.00)
     Cu               19.00    63.54600     Cu( 1.00)
     In               13.00   114.81800     In( 1.00)
     Se                6.00    78.97100     Se( 1.00)

     No symmetry found



   Cartesian axes

     site n.     atom                  positions (alat units)
         1        Cu     tau(   1) = (   0.5000500   0.2886463   0.6440984  )
         2        Cu     tau(   2) = (  -0.0000500   0.5773791   1.4375456  )
         3        In     tau(   3) = (   0.0000000   0.0000000   0.5125575  )
         4        In     tau(   4) = (   0.0000000   0.0000000   1.5959497  )
         5        P      tau(   5) = (  -0.0000500   0.5773791   0.3387888  )
         6        P      tau(   6) = (  -0.0000500   0.5773791   0.6993569  )
         7        P      tau(   7) = (   0.5000500   0.2886463  -0.3599451  )
         8        P      tau(   8) = (   0.5000500   0.2886463   1.3738046  )
         9        Se     tau(   9) = (  -0.1605500   0.2945352   0.2489513  )
        10        Se     tau(  10) = (  -0.1748000  -0.2863080   0.2197909  )
        11        Se     tau(  11) = (   0.3353500  -0.0082272   0.2883171  )
        12        Se     tau(  12) = (  -0.3353500  -0.0082272   0.7805592  )
        13        Se     tau(  13) = (   0.1605500   0.2945352   0.7685103  )
        14        Se     tau(  14) = (   0.1748000  -0.2863080   0.7985653  )
        15        Se     tau(  15) = (   0.1605500  -0.2945352  -0.2749777  )
        16        Se     tau(  16) = (   0.1748000   0.2863080  -0.2794488  )
        17        Se     tau(  17) = (  -0.3353500   0.0082272  -0.2240237  )
        18        Se     tau(  18) = (   0.3353500   0.0082272   1.2597660  )
        19        Se     tau(  19) = (  -0.1605500  -0.2945352   1.2708064  )
        20        Se     tau(  20) = (  -0.1748000   0.2863080   1.3025997  )

     -------------------------------------------------
     Parameters for Dispersion (Grimme-D2) Correction:
     -------------------------------------------------
       atom      VdW radius       C_6     

        P          3.222        271.980
        Cu         2.952        374.666
        In         3.160       1294.678
        Se         3.347        438.498

     number of k points=   324  Gaussian smearing, width (Ry)=  0.0200

     Number of k-points >= 100: set verbosity='high' to print them.

     Dense  grid:   308159 G-vectors     FFT dimensions: (  72,  72, 144)

     Smooth grid:   108923 G-vectors     FFT dimensions: (  50,  50, 108)

     Estimated max dynamical RAM per process >      72.07 MB

     Estimated total dynamical RAM >       8.79 GB

     Initial potential from superposition of free atoms

     starting charge     150.9985, renormalised to     156.0000
     Starting wfcs are  108 randomized atomic wfcs

     total cpu time spent up to now is        3.4 secs

     per-process dynamical memory:    91.0 Mb

     Self-consistent Calculation

     iteration #  1     ecut=    40.00 Ry     beta= 0.12
     Davidson diagonalization with overlap
     ethr =  1.00E-02,  avg # of iterations =  3.0

     total cpu time spent up to now is       13.6 secs

     total energy              =   -1660.47861087 Ry
     estimated scf accuracy    <       2.01349462 Ry

     iteration #  2     ecut=    40.00 Ry     beta= 0.12
     Davidson diagonalization with overlap
     ethr =  1.29E-03,  avg # of iterations =  2.0

     total cpu time spent up to now is       21.7 secs

     total energy              =   -1660.28184135 Ry
     estimated scf accuracy    <       1.13390939 Ry

     iteration #  3     ecut=    40.00 Ry     beta= 0.12
     Davidson diagonalization with overlap
     ethr =  7.27E-04,  avg # of iterations =  2.2

     total cpu time spent up to now is       29.1 secs

     total energy              =   -1660.24347027 Ry
     estimated scf accuracy    <       0.29521104 Ry

     iteration #  4     ecut=    40.00 Ry     beta= 0.12
     Davidson diagonalization with overlap
     ethr =  1.89E-04,  avg # of iterations =  9.4

     total cpu time spent up to now is       45.2 secs

     total energy              =   -1660.26122970 Ry
     estimated scf accuracy    <       0.09152387 Ry

     iteration #  5     ecut=    40.00 Ry     beta= 0.12
     Davidson diagonalization with overlap
     ethr =  5.87E-05,  avg # of iterations =  4.2

     total cpu time spent up to now is       55.7 secs

     total energy              =   -1660.26552533 Ry
     estimated scf accuracy    <       0.15262923 Ry

     iteration #  6     ecut=    40.00 Ry     beta= 0.12
     Davidson diagonalization with overlap
     ethr =  5.87E-05,  avg # of iterations =  2.2

     total cpu time spent up to now is       63.2 secs

     total energy              =   -1660.27565454 Ry
     estimated scf accuracy    <       0.01684568 Ry

     iteration #  7     ecut=    40.00 Ry     beta= 0.12
     Davidson diagonalization with overlap
     ethr =  1.08E-05,  avg # of iterations =  5.7

     total cpu time spent up to now is       77.1 secs

     total energy              =   -1660.27689790 Ry
     estimated scf accuracy    <       0.02311504 Ry

     iteration #  8     ecut=    40.00 Ry     beta= 0.12
     Davidson diagonalization with overlap
     ethr =  1.08E-05,  avg # of iterations =  2.7

     total cpu time spent up to now is       85.2 secs

     total energy              =   -1660.27912829 Ry
     estimated scf accuracy    <       0.00152595 Ry

     iteration #  9     ecut=    40.00 Ry     beta= 0.12
     Davidson diagonalization with overlap
     c_bands:  1 eigenvalues not converged
     c_bands:  1 eigenvalues not converged
     c_bands:  1 eigenvalues not converged
     c_bands:  1 eigenvalues not converged
     ethr =  9.78E-07,  avg # of iterations =  8.4

     total cpu time spent up to now is      101.0 secs

     total energy              =   -1660.27930711 Ry
     estimated scf accuracy    <       0.00116321 Ry

     iteration # 10     ecut=    40.00 Ry     beta= 0.12
     Davidson diagonalization with overlap
     ethr =  7.46E-07,  avg # of iterations =  4.2

     total cpu time spent up to now is      111.1 secs

     total energy              =   -1660.27942143 Ry
     estimated scf accuracy    <       0.00143981 Ry

     iteration # 11     ecut=    40.00 Ry     beta= 0.12
     Davidson diagonalization with overlap
     ethr =  7.46E-07,  avg # of iterations =  3.1

     total cpu time spent up to now is      119.7 secs

     total energy              =   -1660.27970771 Ry
     estimated scf accuracy    <       0.00022411 Ry

     iteration # 12     ecut=    40.00 Ry     beta= 0.12
     Davidson diagonalization with overlap
     ethr =  1.44E-07,  avg # of iterations =  2.6

     total cpu time spent up to now is      128.0 secs

     total energy              =   -1660.27974528 Ry
     estimated scf accuracy    <       0.00001584 Ry

     iteration # 13     ecut=    40.00 Ry     beta= 0.12
     Davidson diagonalization with overlap
     ethr =  1.02E-08,  avg # of iterations =  7.1

     total cpu time spent up to now is      145.6 secs

     total energy              =   -1660.27976950 Ry
     estimated scf accuracy    <       0.00001561 Ry

     iteration # 14     ecut=    40.00 Ry     beta= 0.12
     Davidson diagonalization with overlap
     ethr =  1.00E-08,  avg # of iterations =  3.0

     total cpu time spent up to now is      154.0 secs

     total energy              =   -1660.27977773 Ry
     estimated scf accuracy    <       0.00000598 Ry

     iteration # 15     ecut=    40.00 Ry     beta= 0.12
     Davidson diagonalization with overlap
     ethr =  3.83E-09,  avg # of iterations =  1.3

     total cpu time spent up to now is      160.6 secs

     total energy              =   -1660.27978136 Ry
     estimated scf accuracy    <       0.00000151 Ry

     iteration # 16     ecut=    40.00 Ry     beta= 0.12
     Davidson diagonalization with overlap
     ethr =  9.69E-10,  avg # of iterations =  2.9

     total cpu time spent up to now is      169.6 secs

     End of self-consistent calculation

     Number of k-points >= 100: set verbosity='high' to print the bands.

     the Fermi energy is     6.7844 ev

!    total energy              =   -1660.27979370 Ry
     estimated scf accuracy    <       0.00000016 Ry
     smearing contrib. (-TS)   =      -0.00022021 Ry
     internal energy E=F+TS    =   -1660.27957349 Ry

     The total energy is F=E-TS. E is the sum of the following terms:
     one-electron contribution =   -1117.47546859 Ry
     hartree contribution      =     634.30780575 Ry
     xc contribution           =    -534.00670871 Ry
     ewald contribution        =    -642.84096738 Ry
     Dispersion Correction     =      -0.26423456 Ry

     convergence has been achieved in  16 iterations

     Writing all to output data dir ./test.save/ :
     XML data file, charge density, pseudopotentials, collected wavefunctions
 
     init_run     :      3.01s CPU      3.10s WALL (       1 calls)
     electrons    :    164.33s CPU    166.22s WALL (       1 calls)

     Called by init_run:
     wfcinit      :      2.87s CPU      2.93s WALL (       1 calls)
     potinit      :      0.01s CPU      0.01s WALL (       1 calls)
     hinit0       :      0.04s CPU      0.06s WALL (       1 calls)

     Called by electrons:
     c_bands      :    149.65s CPU    151.11s WALL (      16 calls)
     sum_band     :     14.18s CPU     14.51s WALL (      16 calls)
     v_of_rho     :      0.14s CPU      0.15s WALL (      17 calls)
     newd         :      0.30s CPU      0.33s WALL (      17 calls)
     mix_rho      :      0.02s CPU      0.03s WALL (      16 calls)
     energy_londo :      0.03s CPU      0.03s WALL (       1 calls)

     Called by c_bands:
     init_us_2    :      1.99s CPU      2.03s WALL (    2673 calls)
     cegterg      :    126.98s CPU    128.28s WALL (    1296 calls)

     Called by *egterg:
     cdiaghg      :     43.49s CPU     43.65s WALL (    6464 calls)
     h_psi        :     61.09s CPU     62.11s WALL (    6545 calls)
     s_psi        :      7.51s CPU      7.56s WALL (    6545 calls)
     g_psi        :      0.30s CPU      0.30s WALL (    5168 calls)

     Called by h_psi:
     h_psi:calbec :      7.70s CPU      7.81s WALL (    6545 calls)
     vloc_psi     :     45.33s CPU     46.19s WALL (    6545 calls)
     add_vuspsi   :      7.61s CPU      7.68s WALL (    6545 calls)

     General routines
     calbec       :     10.22s CPU     10.35s WALL (    7841 calls)
     fft          :      0.06s CPU      0.07s WALL (     219 calls)
     ffts         :      0.00s CPU      0.00s WALL (      33 calls)
     fftw         :     46.55s CPU     47.42s WALL (  785886 calls)
     interpolate  :      0.01s CPU      0.01s WALL (      17 calls)
 
     Parallel routines
 
     PWSCF        :    168.76s CPU    183.86s WALL

 
   This run was terminated on:  19:38:51  23Apr2025            

=------------------------------------------------------------------------------=
   JOB DONE.
=------------------------------------------------------------------------------=
