
     Program PWSCF v.7.3.1 starts on 23Apr2025 at 18:23: 2 

     This program is part of the open-source Quantum ESPRESSO suite
     for quantum simulation of materials; please cite
         "P. Giannozzi et al., J. Phys.:Condens. Matter 21 395502 (2009);
         "P. Giannozzi et al., J. Phys.:Condens. Matter 29 465901 (2017);
         "P. Giannozzi et al., J. Chem. Phys. 152 154105 (2020);
          URL http://www.quantum-espresso.org", 
     in publications or presentations arising from this work. More details at
     http://www.quantum-espresso.org/quote

     Parallel version (MPI & OpenMP), running on     128 processor cores
     Number of MPI processes:               128
     Threads/MPI process:                     1

     MPI processes distributed on     2 nodes
     1002823 MiB available memory on the printing compute node when the environment starts
 
     Waiting for input...
     Reading input from standard input
Warning: card &CELL ignored
Warning: card   PRESS = 0.0, ignored
Warning: card / ignored

     Current dimensions of program PWSCF are:
     Max number of different atomic species (ntypx) = 10
     Max number of k-points (npk) =  40000
     Max angular momentum in pseudopotentials (lmaxx) =  4

     IMPORTANT: XC functional enforced from input :
     Exchange-correlation= PBE
                           (   1   4   3   4   0   0   0)
     Any further DFT definition will be discarded
     Please, verify this is what you really want

 
     K-points division:     npool     =       4
     R & G space division:  proc/nbgrp/npool/nimage =      32
     Subspace diagonalization in iterative solution of the eigenvalue problem:
     a serial algorithm will be used

 
     Parallelization info
     --------------------
     sticks:   dense  smooth     PW     G-vecs:    dense   smooth      PW
     Min         100      50     14                 9624     3400     517
     Max         101      51     16                 9637     3407     525
     Sum        3217    1615    463               308159   108923   16645
 
     Using Slab Decomposition
 


     bravais-lattice index     =            4
     lattice parameter (alat)  =      12.0809  a.u.
     unit-cell volume          =    3186.3136 (a.u.)^3
     number of atoms/cell      =           20
     number of atomic types    =            4
     number of electrons       =       156.00
     number of Kohn-Sham states=           94
     kinetic-energy cutoff     =      40.0000  Ry
     charge density cutoff     =     320.0000  Ry
     scf convergence threshold =      1.0E-06
     mixing beta               =       0.1200
     number of iterations used =            8  plain     mixing
     Exchange-correlation= PBE
                           (   1   4   3   4   0   0   0)

     celldm(1)=  12.080900  celldm(2)=   0.000000  celldm(3)=   2.086700
     celldm(4)=   0.000000  celldm(5)=   0.000000  celldm(6)=   0.000000

     crystal axes: (cart. coord. in units of alat)
               a(1) = (   1.000000   0.000000   0.000000 )  
               a(2) = (  -0.500000   0.866025   0.000000 )  
               a(3) = (   0.000000   0.000000   2.086700 )  

     reciprocal axes: (cart. coord. in units 2 pi/alat)
               b(1) = (  1.000000  0.577350  0.000000 )  
               b(2) = (  0.000000  1.154701  0.000000 )  
               b(3) = (  0.000000  0.000000  0.479226 )  


     PseudoPot. # 1 for P  read from file:
     ./p_pbe_v1.5.uspp.F.UPF
     MD5 check sum: eb82b2c351da08c5f5f8709277dc7ee5
     Pseudo is Ultrasoft + core correction, Zval =  5.0
     Generated by new atomic code, or converted to UPF format
     Using radial grid of  903 points,  6 beta functions with: 
                l(1) =   0
                l(2) =   0
                l(3) =   1
                l(4) =   1
                l(5) =   2
                l(6) =   2
     Q(r) pseudized with  8 coefficients,  rinner =    1.300   1.300   1.300
                                                       1.300   1.300

     PseudoPot. # 2 for Cu read from file:
     ./cu_pbe_v1.2.uspp.F.UPF
     MD5 check sum: 6e991ff952a84172a2a52a1c1e996048
     Pseudo is Ultrasoft + core correction, Zval = 19.0
     Generated by new atomic code, or converted to UPF format
     Using radial grid of  867 points,  6 beta functions with: 
                l(1) =   0
                l(2) =   0
                l(3) =   1
                l(4) =   1
                l(5) =   2
                l(6) =   2
     Q(r) pseudized with  8 coefficients,  rinner =    1.150   1.150   1.150
                                                       1.150   1.150

     PseudoPot. # 3 for In read from file:
     ./in_pbe_v1.4.uspp.F.UPF
     MD5 check sum: 90777abd96fbb83f2e67db2a40c566b9
     Pseudo is Ultrasoft + core correction, Zval = 13.0
     Generated by new atomic code, or converted to UPF format
     Using radial grid of  889 points,  6 beta functions with: 
                l(1) =   0
                l(2) =   0
                l(3) =   1
                l(4) =   1
                l(5) =   2
                l(6) =   2
     Q(r) pseudized with  6 coefficients,  rinner =    1.400   1.400   1.400
                                                       1.400   1.400

     PseudoPot. # 4 for Se read from file:
     ./se_pbe_v1.uspp.F.UPF
     MD5 check sum: 1b3568f3a8ae88f9a2a0ad0698632c85
     Pseudo is Ultrasoft + core correction, Zval =  6.0
     Generated by new atomic code, or converted to UPF format
     Using radial grid of  877 points,  6 beta functions with: 
                l(1) =   0
                l(2) =   0
                l(3) =   1
                l(4) =   1
                l(5) =   2
                l(6) =   2
     Q(r) pseudized with  8 coefficients,  rinner =    1.300   1.300   1.300
                                                       1.300   1.300

     atomic species   valence    mass     pseudopotential
     P                 5.00    30.97400     P ( 1.00)
     Cu               19.00    63.54600     Cu( 1.00)
     In               13.00   114.81800     In( 1.00)
     Se                6.00    78.97100     Se( 1.00)

     No symmetry found



   Cartesian axes

     site n.     atom                  positions (alat units)
         1        Cu     tau(   1) = (   0.5000500   0.2886463   0.5104602  )
         2        Cu     tau(   2) = (  -0.0000500   0.5773791   1.6279276  )
         3        In     tau(   3) = (   0.0000000   0.0000000   0.5065595  )
         4        In     tau(   4) = (   0.0000000   0.0000000   1.5300178  )
         5        P      tau(   5) = (  -0.0000500   0.5773791   0.3385762  )
         6        P      tau(   6) = (  -0.0000500   0.5773791   0.7094039  )
         7        P      tau(   7) = (   0.5000500   0.2886463  -0.3529535  )
         8        P      tau(   8) = (   0.5000500   0.2886463   1.4061878  )
         9        Se     tau(   9) = (  -0.1605500   0.2945352   0.2192099  )
        10        Se     tau(  10) = (  -0.1748000  -0.2863080   0.2907389  )
        11        Se     tau(  11) = (   0.3353500  -0.0082272   0.2788737  )
        12        Se     tau(  12) = (  -0.3353500  -0.0082272   0.8021366  )
        13        Se     tau(  13) = (   0.1605500   0.2945352   0.8198894  )
        14        Se     tau(  14) = (   0.1748000  -0.2863080   0.8176164  )
        15        Se     tau(  15) = (   0.1605500  -0.2945352  -0.2652644  )
        16        Se     tau(  16) = (   0.1748000   0.2863080  -0.2789414  )
        17        Se     tau(  17) = (  -0.3353500   0.0082272  -0.2399822  )
        18        Se     tau(  18) = (   0.3353500   0.0082272   1.2635963  )
        19        Se     tau(  19) = (  -0.1605500  -0.2945352   1.2679034  )
        20        Se     tau(  20) = (  -0.1748000   0.2863080   1.2595888  )

     -------------------------------------------------
     Parameters for Dispersion (Grimme-D2) Correction:
     -------------------------------------------------
       atom      VdW radius       C_6     

        P          3.222        271.980
        Cu         2.952        374.666
        In         3.160       1294.678
        Se         3.347        438.498

     number of k points=   324  Gaussian smearing, width (Ry)=  0.0200

     Number of k-points >= 100: set verbosity='high' to print them.

     Dense  grid:   308159 G-vectors     FFT dimensions: (  72,  72, 144)

     Smooth grid:   108923 G-vectors     FFT dimensions: (  50,  50, 108)

     Estimated max dynamical RAM per process >      72.07 MB

     Estimated total dynamical RAM >       8.79 GB

     Initial potential from superposition of free atoms

     starting charge     150.9985, renormalised to     156.0000
     Starting wfcs are  108 randomized atomic wfcs

     total cpu time spent up to now is        3.4 secs

     per-process dynamical memory:    91.0 Mb

     Self-consistent Calculation

     iteration #  1     ecut=    40.00 Ry     beta= 0.12
     Davidson diagonalization with overlap
     ethr =  1.00E-02,  avg # of iterations =  2.8

     total cpu time spent up to now is       13.2 secs

     total energy              =   -1660.43188824 Ry
     estimated scf accuracy    <       2.20249164 Ry

     iteration #  2     ecut=    40.00 Ry     beta= 0.12
     Davidson diagonalization with overlap
     ethr =  1.41E-03,  avg # of iterations =  2.0

     total cpu time spent up to now is       20.9 secs

     total energy              =   -1660.28771693 Ry
     estimated scf accuracy    <       1.14712480 Ry

     iteration #  3     ecut=    40.00 Ry     beta= 0.12
     Davidson diagonalization with overlap
     ethr =  7.35E-04,  avg # of iterations =  2.6

     total cpu time spent up to now is       28.6 secs

     total energy              =   -1660.19078144 Ry
     estimated scf accuracy    <       0.37955288 Ry

     iteration #  4     ecut=    40.00 Ry     beta= 0.12
     Davidson diagonalization with overlap
     ethr =  2.43E-04,  avg # of iterations =  9.5

     total cpu time spent up to now is       44.8 secs

     total energy              =   -1660.23191009 Ry
     estimated scf accuracy    <       0.08530065 Ry

     iteration #  5     ecut=    40.00 Ry     beta= 0.12
     Davidson diagonalization with overlap
     ethr =  5.47E-05,  avg # of iterations =  6.0

     total cpu time spent up to now is       58.8 secs

     total energy              =   -1660.23740411 Ry
     estimated scf accuracy    <       0.17858816 Ry

     iteration #  6     ecut=    40.00 Ry     beta= 0.12
     Davidson diagonalization with overlap
     ethr =  5.47E-05,  avg # of iterations =  2.5

     total cpu time spent up to now is       66.5 secs

     total energy              =   -1660.24541189 Ry
     estimated scf accuracy    <       0.02342454 Ry

     iteration #  7     ecut=    40.00 Ry     beta= 0.12
     Davidson diagonalization with overlap
     ethr =  1.50E-05,  avg # of iterations =  4.7

     total cpu time spent up to now is       77.4 secs

     total energy              =   -1660.24812469 Ry
     estimated scf accuracy    <       0.00566432 Ry

     iteration #  8     ecut=    40.00 Ry     beta= 0.12
     Davidson diagonalization with overlap
     c_bands:  1 eigenvalues not converged
     ethr =  3.63E-06,  avg # of iterations =  8.8

     total cpu time spent up to now is       91.4 secs

     total energy              =   -1660.24776776 Ry
     estimated scf accuracy    <       0.00309644 Ry

     iteration #  9     ecut=    40.00 Ry     beta= 0.12
     Davidson diagonalization with overlap
     ethr =  1.98E-06,  avg # of iterations =  2.7

     total cpu time spent up to now is       99.9 secs

     total energy              =   -1660.24821019 Ry
     estimated scf accuracy    <       0.00029930 Ry

     iteration # 10     ecut=    40.00 Ry     beta= 0.12
     Davidson diagonalization with overlap
     ethr =  1.92E-07,  avg # of iterations =  6.0

     total cpu time spent up to now is      114.6 secs

     total energy              =   -1660.24819627 Ry
     estimated scf accuracy    <       0.00144218 Ry

     iteration # 11     ecut=    40.00 Ry     beta= 0.12
     Davidson diagonalization with overlap
     ethr =  1.92E-07,  avg # of iterations =  4.0

     total cpu time spent up to now is      124.3 secs

     total energy              =   -1660.24841426 Ry
     estimated scf accuracy    <       0.00006110 Ry

     iteration # 12     ecut=    40.00 Ry     beta= 0.12
     Davidson diagonalization with overlap
     ethr =  3.92E-08,  avg # of iterations =  3.6

     total cpu time spent up to now is      133.3 secs

     total energy              =   -1660.24843377 Ry
     estimated scf accuracy    <       0.00003121 Ry

     iteration # 13     ecut=    40.00 Ry     beta= 0.12
     Davidson diagonalization with overlap
     ethr =  2.00E-08,  avg # of iterations =  2.3

     total cpu time spent up to now is      140.8 secs

     total energy              =   -1660.24844363 Ry
     estimated scf accuracy    <       0.00000288 Ry

     iteration # 14     ecut=    40.00 Ry     beta= 0.12
     Davidson diagonalization with overlap
     ethr =  1.85E-09,  avg # of iterations =  6.2

     total cpu time spent up to now is      156.6 secs

     total energy              =   -1660.24845030 Ry
     estimated scf accuracy    <       0.00000158 Ry

     iteration # 15     ecut=    40.00 Ry     beta= 0.12
     Davidson diagonalization with overlap
     ethr =  1.01E-09,  avg # of iterations =  4.1

     total cpu time spent up to now is      166.9 secs

     total energy              =   -1660.24845390 Ry
     estimated scf accuracy    <       0.00000512 Ry

     iteration # 16     ecut=    40.00 Ry     beta= 0.12
     Davidson diagonalization with overlap
     ethr =  1.01E-09,  avg # of iterations =  4.0

     total cpu time spent up to now is      175.9 secs

     End of self-consistent calculation

     Number of k-points >= 100: set verbosity='high' to print the bands.

     the Fermi energy is     6.8469 ev

!    total energy              =   -1660.24846668 Ry
     estimated scf accuracy    <       0.00000007 Ry
     smearing contrib. (-TS)   =      -0.00089422 Ry
     internal energy E=F+TS    =   -1660.24757246 Ry

     The total energy is F=E-TS. E is the sum of the following terms:
     one-electron contribution =   -1077.47583397 Ry
     hartree contribution      =     615.12798574 Ry
     xc contribution           =    -533.69169958 Ry
     ewald contribution        =    -663.94742617 Ry
     Dispersion Correction     =      -0.26059848 Ry

     convergence has been achieved in  16 iterations

     Writing all to output data dir ./test.save/ :
     XML data file, charge density, pseudopotentials, collected wavefunctions
 
     init_run     :      3.03s CPU      3.12s WALL (       1 calls)
     electrons    :    170.74s CPU    172.60s WALL (       1 calls)

     Called by init_run:
     wfcinit      :      2.88s CPU      2.94s WALL (       1 calls)
     potinit      :      0.01s CPU      0.01s WALL (       1 calls)
     hinit0       :      0.06s CPU      0.06s WALL (       1 calls)

     Called by electrons:
     c_bands      :    156.12s CPU    157.62s WALL (      16 calls)
     sum_band     :     14.10s CPU     14.38s WALL (      16 calls)
     v_of_rho     :      0.14s CPU      0.15s WALL (      17 calls)
     newd         :      0.31s CPU      0.32s WALL (      17 calls)
     mix_rho      :      0.02s CPU      0.02s WALL (      16 calls)
     energy_londo :      0.03s CPU      0.03s WALL (       1 calls)

     Called by c_bands:
     init_us_2    :      2.01s CPU      2.07s WALL (    2673 calls)
     cegterg      :    133.49s CPU    134.83s WALL (    1296 calls)

     Called by *egterg:
     cdiaghg      :     47.79s CPU     47.96s WALL (    7202 calls)
     h_psi        :     62.25s CPU     63.28s WALL (    7283 calls)
     s_psi        :      7.83s CPU      7.89s WALL (    7283 calls)
     g_psi        :      0.30s CPU      0.30s WALL (    5906 calls)

     Called by h_psi:
     h_psi:calbec :      8.06s CPU      8.15s WALL (    7283 calls)
     vloc_psi     :     45.81s CPU     46.68s WALL (    7283 calls)
     add_vuspsi   :      7.93s CPU      7.99s WALL (    7283 calls)

     General routines
     calbec       :     10.58s CPU     10.70s WALL (    8579 calls)
     fft          :      0.06s CPU      0.07s WALL (     219 calls)
     ffts         :      0.01s CPU      0.01s WALL (      33 calls)
     fftw         :     46.71s CPU     47.58s WALL (  796014 calls)
     interpolate  :      0.01s CPU      0.01s WALL (      17 calls)
 
     Parallel routines
 
     PWSCF        :    175.22s CPU    190.29s WALL

 
   This run was terminated on:  18:26:12  23Apr2025            

=------------------------------------------------------------------------------=
   JOB DONE.
=------------------------------------------------------------------------------=
