
     Program PWSCF v.7.3.1 starts on  9May2025 at  1:57:59 

     This program is part of the open-source Quantum ESPRESSO suite
     for quantum simulation of materials; please cite
         "P. Giannozzi et al., J. Phys.:Condens. Matter 21 395502 (2009);
         "P. Giannozzi et al., J. Phys.:Condens. Matter 29 465901 (2017);
         "P. Giannozzi et al., J. Chem. Phys. 152 154105 (2020);
          URL http://www.quantum-espresso.org", 
     in publications or presentations arising from this work. More details at
     http://www.quantum-espresso.org/quote

     Parallel version (MPI & OpenMP), running on     128 processor cores
     Number of MPI processes:               128
     Threads/MPI process:                     1

     MPI processes distributed on     2 nodes
     1021553 MiB available memory on the printing compute node when the environment starts
 
     Waiting for input...
     Reading input from standard input
Warning: card &CELL ignored
Warning: card   PRESS = 0.0, ignored
Warning: card / ignored

     Current dimensions of program PWSCF are:
     Max number of different atomic species (ntypx) = 10
     Max number of k-points (npk) =  40000
     Max angular momentum in pseudopotentials (lmaxx) =  4

     IMPORTANT: XC functional enforced from input :
     Exchange-correlation= PBE
                           (   1   4   3   4   0   0   0)
     Any further DFT definition will be discarded
     Please, verify this is what you really want

 
     K-points division:     npool     =       4
     R & G space division:  proc/nbgrp/npool/nimage =      32
     Subspace diagonalization in iterative solution of the eigenvalue problem:
     a serial algorithm will be used

 
     Parallelization info
     --------------------
     sticks:   dense  smooth     PW     G-vecs:    dense   smooth      PW
     Min         100      50     14                 9594     3390     516
     Max         101      51     15                 9607     3397     525
     Sum        3217    1615    451               307175   108599   16633
 
     Using Slab Decomposition
 


     bravais-lattice index     =            4
     lattice parameter (alat)  =      12.0717  a.u.
     unit-cell volume          =    3177.3402 (a.u.)^3
     number of atoms/cell      =           20
     number of atomic types    =            4
     number of electrons       =       156.00
     number of Kohn-Sham states=           94
     kinetic-energy cutoff     =      40.0000  Ry
     charge density cutoff     =     320.0000  Ry
     scf convergence threshold =      1.0E-06
     mixing beta               =       0.1200
     number of iterations used =            8  plain     mixing
     Exchange-correlation= PBE
                           (   1   4   3   4   0   0   0)

     celldm(1)=  12.071670  celldm(2)=   0.000000  celldm(3)=   2.085600
     celldm(4)=   0.000000  celldm(5)=   0.000000  celldm(6)=   0.000000

     crystal axes: (cart. coord. in units of alat)
               a(1) = (   1.000000   0.000000   0.000000 )  
               a(2) = (  -0.500000   0.866025   0.000000 )  
               a(3) = (   0.000000   0.000000   2.085600 )  

     reciprocal axes: (cart. coord. in units 2 pi/alat)
               b(1) = (  1.000000  0.577350  0.000000 )  
               b(2) = (  0.000000  1.154701  0.000000 )  
               b(3) = (  0.000000  0.000000  0.479478 )  


     PseudoPot. # 1 for P  read from file:
     ./p_pbe_v1.5.uspp.F.UPF
     MD5 check sum: eb82b2c351da08c5f5f8709277dc7ee5
     Pseudo is Ultrasoft + core correction, Zval =  5.0
     Generated by new atomic code, or converted to UPF format
     Using radial grid of  903 points,  6 beta functions with: 
                l(1) =   0
                l(2) =   0
                l(3) =   1
                l(4) =   1
                l(5) =   2
                l(6) =   2
     Q(r) pseudized with  8 coefficients,  rinner =    1.300   1.300   1.300
                                                       1.300   1.300

     PseudoPot. # 2 for Cu read from file:
     ./cu_pbe_v1.2.uspp.F.UPF
     MD5 check sum: 6e991ff952a84172a2a52a1c1e996048
     Pseudo is Ultrasoft + core correction, Zval = 19.0
     Generated by new atomic code, or converted to UPF format
     Using radial grid of  867 points,  6 beta functions with: 
                l(1) =   0
                l(2) =   0
                l(3) =   1
                l(4) =   1
                l(5) =   2
                l(6) =   2
     Q(r) pseudized with  8 coefficients,  rinner =    1.150   1.150   1.150
                                                       1.150   1.150

     PseudoPot. # 3 for In read from file:
     ./in_pbe_v1.4.uspp.F.UPF
     MD5 check sum: 90777abd96fbb83f2e67db2a40c566b9
     Pseudo is Ultrasoft + core correction, Zval = 13.0
     Generated by new atomic code, or converted to UPF format
     Using radial grid of  889 points,  6 beta functions with: 
                l(1) =   0
                l(2) =   0
                l(3) =   1
                l(4) =   1
                l(5) =   2
                l(6) =   2
     Q(r) pseudized with  6 coefficients,  rinner =    1.400   1.400   1.400
                                                       1.400   1.400

     PseudoPot. # 4 for Se read from file:
     ./se_pbe_v1.uspp.F.UPF
     MD5 check sum: 1b3568f3a8ae88f9a2a0ad0698632c85
     Pseudo is Ultrasoft + core correction, Zval =  6.0
     Generated by new atomic code, or converted to UPF format
     Using radial grid of  877 points,  6 beta functions with: 
                l(1) =   0
                l(2) =   0
                l(3) =   1
                l(4) =   1
                l(5) =   2
                l(6) =   2
     Q(r) pseudized with  8 coefficients,  rinner =    1.300   1.300   1.300
                                                       1.300   1.300

     atomic species   valence    mass     pseudopotential
     P                 5.00    30.97400     P ( 1.00)
     Cu               19.00    63.54600     Cu( 1.00)
     In               13.00   114.81800     In( 1.00)
     Se                6.00    78.97100     Se( 1.00)

     No symmetry found



   Cartesian axes

     site n.     atom                  positions (alat units)
         1        Cu     tau(   1) = (   0.4999407   0.2887094   0.6769996  )
         2        Cu     tau(   2) = (   0.0000593   0.5773160   1.5210139  )
         3        In     tau(   3) = (   0.9999624   0.0000217   0.4958741  )
         4        In     tau(   4) = (  -0.4999624   0.8660037   1.5459264  )
         5        P      tau(   5) = (  -0.0000153   0.5773583   0.3611372  )
         6        P      tau(   6) = (  -0.0000146   0.5773595   0.7009245  )
         7        P      tau(   7) = (   0.5000153   0.2886671   1.7516451  )
         8        P      tau(   8) = (   0.5000146   0.2886659   1.3742215  )
         9        Se     tau(   9) = (   0.8210490   0.2948570   0.2357728  )
        10        Se     tau(  10) = (   0.3341170   0.5636510   0.2554835  )
        11        Se     tau(  11) = (   0.3447906   0.0075501   0.2644171  )
        12        Se     tau(  12) = (   0.6551709   0.0075477   0.8065931  )
        13        Se     tau(  13) = (   0.1789224   0.2948461   0.8073543  )
        14        Se     tau(  14) = (   0.6658567   0.5636530   0.8146547  )
        15        Se     tau(  15) = (  -0.3210490   0.5711684   1.8439643  )
        16        Se     tau(  16) = (   0.1658830   0.3023744   1.7968725  )
        17        Se     tau(  17) = (   0.1552094   0.8584753   1.8296107  )
        18        Se     tau(  18) = (  -0.1551709   0.8584777   1.3015310  )
        19        Se     tau(  19) = (   0.3210776   0.5711793   1.3301434  )
        20        Se     tau(  20) = (  -0.1658567   0.3023724   1.2776398  )

     -------------------------------------------------
     Parameters for Dispersion (Grimme-D2) Correction:
     -------------------------------------------------
       atom      VdW radius       C_6     

        P          3.222        271.980
        Cu         2.952        374.666
        In         3.160       1294.678
        Se         3.347        438.498

     number of k points=   324  Gaussian smearing, width (Ry)=  0.0200

     Number of k-points >= 100: set verbosity='high' to print them.

     Dense  grid:   307175 G-vectors     FFT dimensions: (  72,  72, 144)

     Smooth grid:   108599 G-vectors     FFT dimensions: (  50,  50, 108)

     Estimated max dynamical RAM per process >      71.90 MB

     Estimated total dynamical RAM >       8.77 GB

     Initial potential from superposition of free atoms

     starting charge     150.9985, renormalised to     156.0000
     Starting wfcs are  108 randomized atomic wfcs

     total cpu time spent up to now is        3.6 secs

     per-process dynamical memory:    91.0 Mb

     Self-consistent Calculation

     iteration #  1     ecut=    40.00 Ry     beta= 0.12
     Davidson diagonalization with overlap
     ethr =  1.00E-02,  avg # of iterations =  2.8

     total cpu time spent up to now is       13.5 secs

     total energy              =   -1660.49449926 Ry
     estimated scf accuracy    <       2.12876943 Ry

     iteration #  2     ecut=    40.00 Ry     beta= 0.12
     Davidson diagonalization with overlap
     ethr =  1.36E-03,  avg # of iterations =  2.0

     total cpu time spent up to now is       21.1 secs

     total energy              =   -1660.30179522 Ry
     estimated scf accuracy    <       1.18893444 Ry

     iteration #  3     ecut=    40.00 Ry     beta= 0.12
     Davidson diagonalization with overlap
     ethr =  7.62E-04,  avg # of iterations =  2.0

     total cpu time spent up to now is       28.4 secs

     total energy              =   -1660.24544652 Ry
     estimated scf accuracy    <       0.33426247 Ry

     iteration #  4     ecut=    40.00 Ry     beta= 0.12
     Davidson diagonalization with overlap
     ethr =  2.14E-04,  avg # of iterations = 10.5

     total cpu time spent up to now is       45.3 secs

     total energy              =   -1660.27546060 Ry
     estimated scf accuracy    <       0.10011067 Ry

     iteration #  5     ecut=    40.00 Ry     beta= 0.12
     Davidson diagonalization with overlap
     ethr =  6.42E-05,  avg # of iterations =  2.8

     total cpu time spent up to now is       54.3 secs

     total energy              =   -1660.28267366 Ry
     estimated scf accuracy    <       0.05000037 Ry

     iteration #  6     ecut=    40.00 Ry     beta= 0.12
     Davidson diagonalization with overlap
     ethr =  3.21E-05,  avg # of iterations =  1.9

     total cpu time spent up to now is       61.8 secs

     total energy              =   -1660.28528212 Ry
     estimated scf accuracy    <       0.01157286 Ry

     iteration #  7     ecut=    40.00 Ry     beta= 0.12
     Davidson diagonalization with overlap
     c_bands:  1 eigenvalues not converged
     ethr =  7.42E-06,  avg # of iterations =  9.5

     total cpu time spent up to now is       79.0 secs

     total energy              =   -1660.28472358 Ry
     estimated scf accuracy    <       0.00936223 Ry

     iteration #  8     ecut=    40.00 Ry     beta= 0.12
     Davidson diagonalization with overlap
     ethr =  6.00E-06,  avg # of iterations =  2.2

     total cpu time spent up to now is       86.5 secs

     total energy              =   -1660.28550580 Ry
     estimated scf accuracy    <       0.00136113 Ry

     iteration #  9     ecut=    40.00 Ry     beta= 0.12
     Davidson diagonalization with overlap
     ethr =  8.73E-07,  avg # of iterations =  4.6

     total cpu time spent up to now is       98.5 secs

     total energy              =   -1660.28576153 Ry
     estimated scf accuracy    <       0.00037178 Ry

     iteration # 10     ecut=    40.00 Ry     beta= 0.12
     Davidson diagonalization with overlap
     ethr =  2.38E-07,  avg # of iterations =  5.0

     total cpu time spent up to now is      110.8 secs

     total energy              =   -1660.28593737 Ry
     estimated scf accuracy    <       0.00021383 Ry

     iteration # 11     ecut=    40.00 Ry     beta= 0.12
     Davidson diagonalization with overlap
     ethr =  1.37E-07,  avg # of iterations =  2.0

     total cpu time spent up to now is      118.3 secs

     total energy              =   -1660.28597733 Ry
     estimated scf accuracy    <       0.00001633 Ry

     iteration # 12     ecut=    40.00 Ry     beta= 0.12
     Davidson diagonalization with overlap
     ethr =  1.05E-08,  avg # of iterations =  6.5

     total cpu time spent up to now is      135.6 secs

     total energy              =   -1660.28599580 Ry
     estimated scf accuracy    <       0.00002293 Ry

     iteration # 13     ecut=    40.00 Ry     beta= 0.12
     Davidson diagonalization with overlap
     ethr =  1.05E-08,  avg # of iterations =  3.1

     total cpu time spent up to now is      144.2 secs

     total energy              =   -1660.28600512 Ry
     estimated scf accuracy    <       0.00000528 Ry

     iteration # 14     ecut=    40.00 Ry     beta= 0.12
     Davidson diagonalization with overlap
     ethr =  3.38E-09,  avg # of iterations =  3.1

     total cpu time spent up to now is      152.6 secs

     total energy              =   -1660.28601037 Ry
     estimated scf accuracy    <       0.00000126 Ry

     iteration # 15     ecut=    40.00 Ry     beta= 0.12
     Davidson diagonalization with overlap
     ethr =  8.07E-10,  avg # of iterations =  4.0

     total cpu time spent up to now is      163.4 secs

     End of self-consistent calculation

     Number of k-points >= 100: set verbosity='high' to print the bands.

     the Fermi energy is     6.8301 ev

!    total energy              =   -1660.28602585 Ry
     estimated scf accuracy    <       0.00000026 Ry
     smearing contrib. (-TS)   =      -0.00077159 Ry
     internal energy E=F+TS    =   -1660.28525426 Ry

     The total energy is F=E-TS. E is the sum of the following terms:
     one-electron contribution =   -1123.48058258 Ry
     hartree contribution      =     637.36160379 Ry
     xc contribution           =    -533.65602082 Ry
     ewald contribution        =    -640.24648108 Ry
     Dispersion Correction     =      -0.26377357 Ry

     convergence has been achieved in  15 iterations

     Writing all to output data dir ./test.save/ :
     XML data file, charge density, pseudopotentials, collected wavefunctions
 
     init_run     :      3.16s CPU      3.26s WALL (       1 calls)
     electrons    :    158.03s CPU    159.81s WALL (       1 calls)

     Called by init_run:
     wfcinit      :      3.00s CPU      3.09s WALL (       1 calls)
     potinit      :      0.01s CPU      0.02s WALL (       1 calls)
     hinit0       :      0.06s CPU      0.06s WALL (       1 calls)

     Called by electrons:
     c_bands      :    144.44s CPU    145.86s WALL (      15 calls)
     sum_band     :     13.12s CPU     13.38s WALL (      15 calls)
     v_of_rho     :      0.13s CPU      0.14s WALL (      16 calls)
     newd         :      0.28s CPU      0.31s WALL (      16 calls)
     mix_rho      :      0.02s CPU      0.02s WALL (      15 calls)
     energy_londo :      0.03s CPU      0.03s WALL (       1 calls)

     Called by c_bands:
     init_us_2    :      2.04s CPU      2.09s WALL (    2511 calls)
     cegterg      :    118.69s CPU    119.97s WALL (    1215 calls)

     Called by *egterg:
     cdiaghg      :     41.84s CPU     42.02s WALL (    6189 calls)
     h_psi        :     56.24s CPU     57.22s WALL (    6270 calls)
     s_psi        :      7.05s CPU      7.11s WALL (    6270 calls)
     g_psi        :      0.27s CPU      0.27s WALL (    4974 calls)

     Called by h_psi:
     h_psi:calbec :      7.21s CPU      7.30s WALL (    6270 calls)
     vloc_psi     :     41.52s CPU     42.34s WALL (    6270 calls)
     add_vuspsi   :      7.10s CPU      7.17s WALL (    6270 calls)

     General routines
     calbec       :      9.58s CPU      9.69s WALL (    7485 calls)
     fft          :      0.05s CPU      0.06s WALL (     206 calls)
     ffts         :      0.00s CPU      0.00s WALL (      31 calls)
     fftw         :     42.42s CPU     43.26s WALL (  725858 calls)
     interpolate  :      0.01s CPU      0.01s WALL (      16 calls)
 
     Parallel routines
 
     PWSCF        :    162.77s CPU    180.05s WALL

 
   This run was terminated on:   2: 0:59   9May2025            

=------------------------------------------------------------------------------=
   JOB DONE.
=------------------------------------------------------------------------------=
