
     Program PWSCF v.7.3.1 starts on 23Apr2025 at 19:16:21 

     This program is part of the open-source Quantum ESPRESSO suite
     for quantum simulation of materials; please cite
         "P. Giannozzi et al., J. Phys.:Condens. Matter 21 395502 (2009);
         "P. Giannozzi et al., J. Phys.:Condens. Matter 29 465901 (2017);
         "P. Giannozzi et al., J. Chem. Phys. 152 154105 (2020);
          URL http://www.quantum-espresso.org", 
     in publications or presentations arising from this work. More details at
     http://www.quantum-espresso.org/quote

     Parallel version (MPI & OpenMP), running on     128 processor cores
     Number of MPI processes:               128
     Threads/MPI process:                     1

     MPI processes distributed on     2 nodes
     1002835 MiB available memory on the printing compute node when the environment starts
 
     Waiting for input...
     Reading input from standard input
Warning: card &CELL ignored
Warning: card   PRESS = 0.0, ignored
Warning: card / ignored

     Current dimensions of program PWSCF are:
     Max number of different atomic species (ntypx) = 10
     Max number of k-points (npk) =  40000
     Max angular momentum in pseudopotentials (lmaxx) =  4

     IMPORTANT: XC functional enforced from input :
     Exchange-correlation= PBE
                           (   1   4   3   4   0   0   0)
     Any further DFT definition will be discarded
     Please, verify this is what you really want

 
     K-points division:     npool     =       4
     R & G space division:  proc/nbgrp/npool/nimage =      32
     Subspace diagonalization in iterative solution of the eigenvalue problem:
     a serial algorithm will be used

 
     Parallelization info
     --------------------
     sticks:   dense  smooth     PW     G-vecs:    dense   smooth      PW
     Min         100      50     14                 9624     3400     517
     Max         101      51     16                 9637     3407     525
     Sum        3217    1615    463               308159   108923   16645
 
     Using Slab Decomposition
 


     bravais-lattice index     =            4
     lattice parameter (alat)  =      12.0809  a.u.
     unit-cell volume          =    3186.3136 (a.u.)^3
     number of atoms/cell      =           20
     number of atomic types    =            4
     number of electrons       =       156.00
     number of Kohn-Sham states=           94
     kinetic-energy cutoff     =      40.0000  Ry
     charge density cutoff     =     320.0000  Ry
     scf convergence threshold =      1.0E-06
     mixing beta               =       0.1200
     number of iterations used =            8  plain     mixing
     Exchange-correlation= PBE
                           (   1   4   3   4   0   0   0)

     celldm(1)=  12.080900  celldm(2)=   0.000000  celldm(3)=   2.086700
     celldm(4)=   0.000000  celldm(5)=   0.000000  celldm(6)=   0.000000

     crystal axes: (cart. coord. in units of alat)
               a(1) = (   1.000000   0.000000   0.000000 )  
               a(2) = (  -0.500000   0.866025   0.000000 )  
               a(3) = (   0.000000   0.000000   2.086700 )  

     reciprocal axes: (cart. coord. in units 2 pi/alat)
               b(1) = (  1.000000  0.577350  0.000000 )  
               b(2) = (  0.000000  1.154701  0.000000 )  
               b(3) = (  0.000000  0.000000  0.479226 )  


     PseudoPot. # 1 for P  read from file:
     ./p_pbe_v1.5.uspp.F.UPF
     MD5 check sum: eb82b2c351da08c5f5f8709277dc7ee5
     Pseudo is Ultrasoft + core correction, Zval =  5.0
     Generated by new atomic code, or converted to UPF format
     Using radial grid of  903 points,  6 beta functions with: 
                l(1) =   0
                l(2) =   0
                l(3) =   1
                l(4) =   1
                l(5) =   2
                l(6) =   2
     Q(r) pseudized with  8 coefficients,  rinner =    1.300   1.300   1.300
                                                       1.300   1.300

     PseudoPot. # 2 for Cu read from file:
     ./cu_pbe_v1.2.uspp.F.UPF
     MD5 check sum: 6e991ff952a84172a2a52a1c1e996048
     Pseudo is Ultrasoft + core correction, Zval = 19.0
     Generated by new atomic code, or converted to UPF format
     Using radial grid of  867 points,  6 beta functions with: 
                l(1) =   0
                l(2) =   0
                l(3) =   1
                l(4) =   1
                l(5) =   2
                l(6) =   2
     Q(r) pseudized with  8 coefficients,  rinner =    1.150   1.150   1.150
                                                       1.150   1.150

     PseudoPot. # 3 for In read from file:
     ./in_pbe_v1.4.uspp.F.UPF
     MD5 check sum: 90777abd96fbb83f2e67db2a40c566b9
     Pseudo is Ultrasoft + core correction, Zval = 13.0
     Generated by new atomic code, or converted to UPF format
     Using radial grid of  889 points,  6 beta functions with: 
                l(1) =   0
                l(2) =   0
                l(3) =   1
                l(4) =   1
                l(5) =   2
                l(6) =   2
     Q(r) pseudized with  6 coefficients,  rinner =    1.400   1.400   1.400
                                                       1.400   1.400

     PseudoPot. # 4 for Se read from file:
     ./se_pbe_v1.uspp.F.UPF
     MD5 check sum: 1b3568f3a8ae88f9a2a0ad0698632c85
     Pseudo is Ultrasoft + core correction, Zval =  6.0
     Generated by new atomic code, or converted to UPF format
     Using radial grid of  877 points,  6 beta functions with: 
                l(1) =   0
                l(2) =   0
                l(3) =   1
                l(4) =   1
                l(5) =   2
                l(6) =   2
     Q(r) pseudized with  8 coefficients,  rinner =    1.300   1.300   1.300
                                                       1.300   1.300

     atomic species   valence    mass     pseudopotential
     P                 5.00    30.97400     P ( 1.00)
     Cu               19.00    63.54600     Cu( 1.00)
     In               13.00   114.81800     In( 1.00)
     Se                6.00    78.97100     Se( 1.00)

     No symmetry found



   Cartesian axes

     site n.     atom                  positions (alat units)
         1        Cu     tau(   1) = (   0.5000500   0.2886463   0.4799013  )
         2        Cu     tau(   2) = (  -0.0000500   0.5773791   1.4386784  )
         3        In     tau(   3) = (   0.0000000   0.0000000   0.4914295  )
         4        In     tau(   4) = (   0.0000000   0.0000000   1.5903890  )
         5        P      tau(   5) = (  -0.0000500   0.5773791   0.3470889  )
         6        P      tau(   6) = (  -0.0000500   0.5773791   0.6928982  )
         7        P      tau(   7) = (   0.5000500   0.2886463  -0.3612833  )
         8        P      tau(   8) = (   0.5000500   0.2886463   1.3994345  )
         9        Se     tau(   9) = (  -0.1605500   0.2945352   0.2090696  )
        10        Se     tau(  10) = (  -0.1748000  -0.2863080   0.2185067  )
        11        Se     tau(  11) = (   0.3353500  -0.0082272   0.2268789  )
        12        Se     tau(  12) = (  -0.3353500  -0.0082272   0.8338168  )
        13        Se     tau(  13) = (   0.1605500   0.2945352   0.8296239  )
        14        Se     tau(  14) = (   0.1748000  -0.2863080   0.8222897  )
        15        Se     tau(  15) = (   0.1605500  -0.2945352  -0.2716559  )
        16        Se     tau(  16) = (   0.1748000   0.2863080  -0.2324724  )
        17        Se     tau(  17) = (  -0.3353500   0.0082272  -0.2260401  )
        18        Se     tau(  18) = (   0.3353500   0.0082272   1.3140235  )
        19        Se     tau(  19) = (  -0.1605500  -0.2945352   1.2977364  )
        20        Se     tau(  20) = (  -0.1748000   0.2863080   1.2762654  )

     -------------------------------------------------
     Parameters for Dispersion (Grimme-D2) Correction:
     -------------------------------------------------
       atom      VdW radius       C_6     

        P          3.222        271.980
        Cu         2.952        374.666
        In         3.160       1294.678
        Se         3.347        438.498

     number of k points=   324  Gaussian smearing, width (Ry)=  0.0200

     Number of k-points >= 100: set verbosity='high' to print them.

     Dense  grid:   308159 G-vectors     FFT dimensions: (  72,  72, 144)

     Smooth grid:   108923 G-vectors     FFT dimensions: (  50,  50, 108)

     Estimated max dynamical RAM per process >      72.07 MB

     Estimated total dynamical RAM >       8.79 GB

     Initial potential from superposition of free atoms

     starting charge     150.9985, renormalised to     156.0000
     Starting wfcs are  108 randomized atomic wfcs

     total cpu time spent up to now is        3.4 secs

     per-process dynamical memory:    91.0 Mb

     Self-consistent Calculation

     iteration #  1     ecut=    40.00 Ry     beta= 0.12
     Davidson diagonalization with overlap
     ethr =  1.00E-02,  avg # of iterations =  2.9

     total cpu time spent up to now is       13.3 secs

     total energy              =   -1660.45001443 Ry
     estimated scf accuracy    <       2.28507559 Ry

     iteration #  2     ecut=    40.00 Ry     beta= 0.12
     Davidson diagonalization with overlap
     ethr =  1.46E-03,  avg # of iterations =  2.0

     total cpu time spent up to now is       21.0 secs

     total energy              =   -1660.26638744 Ry
     estimated scf accuracy    <       1.18923974 Ry

     iteration #  3     ecut=    40.00 Ry     beta= 0.12
     Davidson diagonalization with overlap
     ethr =  7.62E-04,  avg # of iterations =  2.2

     total cpu time spent up to now is       28.4 secs

     total energy              =   -1660.20558577 Ry
     estimated scf accuracy    <       0.34556709 Ry

     iteration #  4     ecut=    40.00 Ry     beta= 0.12
     Davidson diagonalization with overlap
     ethr =  2.22E-04,  avg # of iterations = 10.5

     total cpu time spent up to now is       45.1 secs

     total energy              =   -1660.24809591 Ry
     estimated scf accuracy    <       0.08373823 Ry

     iteration #  5     ecut=    40.00 Ry     beta= 0.12
     Davidson diagonalization with overlap
     ethr =  5.37E-05,  avg # of iterations =  2.2

     total cpu time spent up to now is       52.3 secs

     total energy              =   -1660.24455106 Ry
     estimated scf accuracy    <       0.03704829 Ry

     iteration #  6     ecut=    40.00 Ry     beta= 0.12
     Davidson diagonalization with overlap
     c_bands:  1 eigenvalues not converged
     ethr =  2.37E-05,  avg # of iterations =  5.6

     total cpu time spent up to now is       65.3 secs

     total energy              =   -1660.24152745 Ry
     estimated scf accuracy    <       0.01783271 Ry

     iteration #  7     ecut=    40.00 Ry     beta= 0.12
     Davidson diagonalization with overlap
     c_bands:  1 eigenvalues not converged
     ethr =  1.14E-05,  avg # of iterations =  7.3

     total cpu time spent up to now is       80.3 secs

     total energy              =   -1660.24340025 Ry
     estimated scf accuracy    <       0.05520756 Ry

     iteration #  8     ecut=    40.00 Ry     beta= 0.12
     Davidson diagonalization with overlap
     ethr =  1.14E-05,  avg # of iterations =  3.3

     total cpu time spent up to now is       89.0 secs

     total energy              =   -1660.24450955 Ry
     estimated scf accuracy    <       0.00669388 Ry

     iteration #  9     ecut=    40.00 Ry     beta= 0.12
     Davidson diagonalization with overlap
     ethr =  4.29E-06,  avg # of iterations =  5.4

     total cpu time spent up to now is      102.4 secs

     total energy              =   -1660.24677615 Ry
     estimated scf accuracy    <       0.00917464 Ry

     iteration # 10     ecut=    40.00 Ry     beta= 0.12
     Davidson diagonalization with overlap
     ethr =  4.29E-06,  avg # of iterations =  2.0

     total cpu time spent up to now is      109.5 secs

     total energy              =   -1660.24659926 Ry
     estimated scf accuracy    <       0.00222934 Ry

     iteration # 11     ecut=    40.00 Ry     beta= 0.12
     Davidson diagonalization with overlap
     ethr =  1.43E-06,  avg # of iterations =  4.0

     total cpu time spent up to now is      118.5 secs

     total energy              =   -1660.24696924 Ry
     estimated scf accuracy    <       0.00007042 Ry

     iteration # 12     ecut=    40.00 Ry     beta= 0.12
     Davidson diagonalization with overlap
     ethr =  4.51E-08,  avg # of iterations =  7.2

     total cpu time spent up to now is      136.5 secs

     total energy              =   -1660.24696080 Ry
     estimated scf accuracy    <       0.00036948 Ry

     iteration # 13     ecut=    40.00 Ry     beta= 0.12
     Davidson diagonalization with overlap
     ethr =  4.51E-08,  avg # of iterations =  4.0

     total cpu time spent up to now is      146.6 secs

     total energy              =   -1660.24702880 Ry
     estimated scf accuracy    <       0.00010588 Ry

     iteration # 14     ecut=    40.00 Ry     beta= 0.12
     Davidson diagonalization with overlap
     ethr =  4.51E-08,  avg # of iterations =  4.0

     total cpu time spent up to now is      155.7 secs

     total energy              =   -1660.24705400 Ry
     estimated scf accuracy    <       0.00001629 Ry

     iteration # 15     ecut=    40.00 Ry     beta= 0.12
     Davidson diagonalization with overlap
     ethr =  1.04E-08,  avg # of iterations =  2.0

     total cpu time spent up to now is      162.7 secs

     total energy              =   -1660.24705674 Ry
     estimated scf accuracy    <       0.00000403 Ry

     iteration # 16     ecut=    40.00 Ry     beta= 0.12
     Davidson diagonalization with overlap
     ethr =  2.58E-09,  avg # of iterations =  4.3

     total cpu time spent up to now is      173.5 secs

     total energy              =   -1660.24706027 Ry
     estimated scf accuracy    <       0.00000670 Ry

     iteration # 17     ecut=    40.00 Ry     beta= 0.12
     Davidson diagonalization with overlap
     ethr =  2.58E-09,  avg # of iterations =  3.3

     total cpu time spent up to now is      181.9 secs

     End of self-consistent calculation

     Number of k-points >= 100: set verbosity='high' to print the bands.

     the Fermi energy is     6.8523 ev

!    total energy              =   -1660.24707032 Ry
     estimated scf accuracy    <       0.00000010 Ry
     smearing contrib. (-TS)   =      -0.00147376 Ry
     internal energy E=F+TS    =   -1660.24559656 Ry

     The total energy is F=E-TS. E is the sum of the following terms:
     one-electron contribution =   -1058.43532225 Ry
     hartree contribution      =     605.48924768 Ry
     xc contribution           =    -533.44345335 Ry
     ewald contribution        =    -673.59150293 Ry
     Dispersion Correction     =      -0.26456570 Ry

     convergence has been achieved in  17 iterations

     Writing all to output data dir ./test.save/ :
     XML data file, charge density, pseudopotentials, collected wavefunctions
 
     init_run     :      3.01s CPU      3.11s WALL (       1 calls)
     electrons    :    176.53s CPU    178.53s WALL (       1 calls)

     Called by init_run:
     wfcinit      :      2.87s CPU      2.93s WALL (       1 calls)
     potinit      :      0.01s CPU      0.01s WALL (       1 calls)
     hinit0       :      0.04s CPU      0.06s WALL (       1 calls)

     Called by electrons:
     c_bands      :    161.19s CPU    162.72s WALL (      17 calls)
     sum_band     :     14.81s CPU     15.18s WALL (      17 calls)
     v_of_rho     :      0.14s CPU      0.16s WALL (      18 calls)
     newd         :      0.32s CPU      0.35s WALL (      18 calls)
     mix_rho      :      0.02s CPU      0.03s WALL (      17 calls)
     energy_londo :      0.03s CPU      0.03s WALL (       1 calls)

     Called by c_bands:
     init_us_2    :      2.19s CPU      2.25s WALL (    2835 calls)
     cegterg      :    135.76s CPU    137.12s WALL (    1377 calls)

     Called by *egterg:
     cdiaghg      :     47.93s CPU     48.09s WALL (    7210 calls)
     h_psi        :     64.06s CPU     65.12s WALL (    7291 calls)
     s_psi        :      7.97s CPU      8.03s WALL (    7291 calls)
     g_psi        :      0.30s CPU      0.31s WALL (    5833 calls)

     Called by h_psi:
     h_psi:calbec :      8.21s CPU      8.30s WALL (    7291 calls)
     vloc_psi     :     47.25s CPU     48.16s WALL (    7291 calls)
     add_vuspsi   :      8.13s CPU      8.20s WALL (    7291 calls)

     General routines
     calbec       :     10.87s CPU     10.99s WALL (    8668 calls)
     fft          :      0.07s CPU      0.08s WALL (     232 calls)
     ffts         :      0.00s CPU      0.01s WALL (      35 calls)
     fftw         :     48.29s CPU     49.22s WALL (  822652 calls)
     interpolate  :      0.00s CPU      0.01s WALL (      18 calls)
 
     Parallel routines
 
     PWSCF        :    181.00s CPU    196.28s WALL

 
   This run was terminated on:  19:19:38  23Apr2025            

=------------------------------------------------------------------------------=
   JOB DONE.
=------------------------------------------------------------------------------=
