
     Program PWSCF v.7.3.1 starts on  9May2025 at 17: 7:57 

     This program is part of the open-source Quantum ESPRESSO suite
     for quantum simulation of materials; please cite
         "P. Giannozzi et al., J. Phys.:Condens. Matter 21 395502 (2009);
         "P. Giannozzi et al., J. Phys.:Condens. Matter 29 465901 (2017);
         "P. Giannozzi et al., J. Chem. Phys. 152 154105 (2020);
          URL http://www.quantum-espresso.org", 
     in publications or presentations arising from this work. More details at
     http://www.quantum-espresso.org/quote

     Parallel version (MPI & OpenMP), running on     128 processor cores
     Number of MPI processes:               128
     Threads/MPI process:                     1

     MPI processes distributed on     2 nodes
     1021543 MiB available memory on the printing compute node when the environment starts
 
     Waiting for input...
     Reading input from standard input
Warning: card &CELL ignored
Warning: card   PRESS = 0.0, ignored
Warning: card / ignored

     Current dimensions of program PWSCF are:
     Max number of different atomic species (ntypx) = 10
     Max number of k-points (npk) =  40000
     Max angular momentum in pseudopotentials (lmaxx) =  4

     IMPORTANT: XC functional enforced from input :
     Exchange-correlation= PBE
                           (   1   4   3   4   0   0   0)
     Any further DFT definition will be discarded
     Please, verify this is what you really want

 
     K-points division:     npool     =       4
     R & G space division:  proc/nbgrp/npool/nimage =      32
     Subspace diagonalization in iterative solution of the eigenvalue problem:
     a serial algorithm will be used

 
     Parallelization info
     --------------------
     sticks:   dense  smooth     PW     G-vecs:    dense   smooth      PW
     Min         100      50     14                 9594     3390     516
     Max         101      51     15                 9607     3397     525
     Sum        3217    1615    451               307175   108599   16633
 
     Using Slab Decomposition
 


     bravais-lattice index     =            4
     lattice parameter (alat)  =      12.0717  a.u.
     unit-cell volume          =    3177.3402 (a.u.)^3
     number of atoms/cell      =           20
     number of atomic types    =            4
     number of electrons       =       156.00
     number of Kohn-Sham states=           94
     kinetic-energy cutoff     =      40.0000  Ry
     charge density cutoff     =     320.0000  Ry
     scf convergence threshold =      1.0E-06
     mixing beta               =       0.1200
     number of iterations used =            8  plain     mixing
     Exchange-correlation= PBE
                           (   1   4   3   4   0   0   0)

     celldm(1)=  12.071670  celldm(2)=   0.000000  celldm(3)=   2.085600
     celldm(4)=   0.000000  celldm(5)=   0.000000  celldm(6)=   0.000000

     crystal axes: (cart. coord. in units of alat)
               a(1) = (   1.000000   0.000000   0.000000 )  
               a(2) = (  -0.500000   0.866025   0.000000 )  
               a(3) = (   0.000000   0.000000   2.085600 )  

     reciprocal axes: (cart. coord. in units 2 pi/alat)
               b(1) = (  1.000000  0.577350  0.000000 )  
               b(2) = (  0.000000  1.154701  0.000000 )  
               b(3) = (  0.000000  0.000000  0.479478 )  


     PseudoPot. # 1 for P  read from file:
     ./p_pbe_v1.5.uspp.F.UPF
     MD5 check sum: eb82b2c351da08c5f5f8709277dc7ee5
     Pseudo is Ultrasoft + core correction, Zval =  5.0
     Generated by new atomic code, or converted to UPF format
     Using radial grid of  903 points,  6 beta functions with: 
                l(1) =   0
                l(2) =   0
                l(3) =   1
                l(4) =   1
                l(5) =   2
                l(6) =   2
     Q(r) pseudized with  8 coefficients,  rinner =    1.300   1.300   1.300
                                                       1.300   1.300

     PseudoPot. # 2 for Cu read from file:
     ./cu_pbe_v1.2.uspp.F.UPF
     MD5 check sum: 6e991ff952a84172a2a52a1c1e996048
     Pseudo is Ultrasoft + core correction, Zval = 19.0
     Generated by new atomic code, or converted to UPF format
     Using radial grid of  867 points,  6 beta functions with: 
                l(1) =   0
                l(2) =   0
                l(3) =   1
                l(4) =   1
                l(5) =   2
                l(6) =   2
     Q(r) pseudized with  8 coefficients,  rinner =    1.150   1.150   1.150
                                                       1.150   1.150

     PseudoPot. # 3 for In read from file:
     ./in_pbe_v1.4.uspp.F.UPF
     MD5 check sum: 90777abd96fbb83f2e67db2a40c566b9
     Pseudo is Ultrasoft + core correction, Zval = 13.0
     Generated by new atomic code, or converted to UPF format
     Using radial grid of  889 points,  6 beta functions with: 
                l(1) =   0
                l(2) =   0
                l(3) =   1
                l(4) =   1
                l(5) =   2
                l(6) =   2
     Q(r) pseudized with  6 coefficients,  rinner =    1.400   1.400   1.400
                                                       1.400   1.400

     PseudoPot. # 4 for Se read from file:
     ./se_pbe_v1.uspp.F.UPF
     MD5 check sum: 1b3568f3a8ae88f9a2a0ad0698632c85
     Pseudo is Ultrasoft + core correction, Zval =  6.0
     Generated by new atomic code, or converted to UPF format
     Using radial grid of  877 points,  6 beta functions with: 
                l(1) =   0
                l(2) =   0
                l(3) =   1
                l(4) =   1
                l(5) =   2
                l(6) =   2
     Q(r) pseudized with  8 coefficients,  rinner =    1.300   1.300   1.300
                                                       1.300   1.300

     atomic species   valence    mass     pseudopotential
     P                 5.00    30.97400     P ( 1.00)
     Cu               19.00    63.54600     Cu( 1.00)
     In               13.00   114.81800     In( 1.00)
     Se                6.00    78.97100     Se( 1.00)

     No symmetry found



   Cartesian axes

     site n.     atom                  positions (alat units)
         1        Cu     tau(   1) = (   0.4999407   0.2887094   0.5453698  )
         2        Cu     tau(   2) = (   0.0000593   0.5773160   1.6712418  )
         3        In     tau(   3) = (   0.9999624   0.0000217   0.4942373  )
         4        In     tau(   4) = (  -0.4999624   0.8660037   1.5326271  )
         5        P      tau(   5) = (  -0.0000153   0.5773583   0.3441935  )
         6        P      tau(   6) = (  -0.0000146   0.5773595   0.6815992  )
         7        P      tau(   7) = (   0.5000153   0.2886671   1.7539699  )
         8        P      tau(   8) = (   0.5000146   0.2886659   1.3962672  )
         9        Se     tau(   9) = (   0.8210490   0.2948570   0.2454260  )
        10        Se     tau(  10) = (   0.3341170   0.5636510   0.2623500  )
        11        Se     tau(  11) = (   0.3447906   0.0075501   0.2524949  )
        12        Se     tau(  12) = (   0.6551709   0.0075477   0.7982237  )
        13        Se     tau(  13) = (   0.1789224   0.2948461   0.7972159  )
        14        Se     tau(  14) = (   0.6658567   0.5636530   0.7811218  )
        15        Se     tau(  15) = (  -0.3210490   0.5711684   1.8072661  )
        16        Se     tau(  16) = (   0.1658830   0.3023744   1.8668627  )
        17        Se     tau(  17) = (   0.1552094   0.8584753   1.8513218  )
        18        Se     tau(  18) = (  -0.1551709   0.8584777   1.2802235  )
        19        Se     tau(  19) = (   0.3210776   0.5711793   1.2676662  )
        20        Se     tau(  20) = (  -0.1658567   0.3023724   1.3251743  )

     -------------------------------------------------
     Parameters for Dispersion (Grimme-D2) Correction:
     -------------------------------------------------
       atom      VdW radius       C_6     

        P          3.222        271.980
        Cu         2.952        374.666
        In         3.160       1294.678
        Se         3.347        438.498

     number of k points=   324  Gaussian smearing, width (Ry)=  0.0200

     Number of k-points >= 100: set verbosity='high' to print them.

     Dense  grid:   307175 G-vectors     FFT dimensions: (  72,  72, 144)

     Smooth grid:   108599 G-vectors     FFT dimensions: (  50,  50, 108)

     Estimated max dynamical RAM per process >      71.90 MB

     Estimated total dynamical RAM >       8.77 GB

     Initial potential from superposition of free atoms

     starting charge     150.9985, renormalised to     156.0000
     Starting wfcs are  108 randomized atomic wfcs

     total cpu time spent up to now is        3.7 secs

     per-process dynamical memory:    91.0 Mb

     Self-consistent Calculation

     iteration #  1     ecut=    40.00 Ry     beta= 0.12
     Davidson diagonalization with overlap
     ethr =  1.00E-02,  avg # of iterations =  2.8

     total cpu time spent up to now is       13.4 secs

     total energy              =   -1660.51359239 Ry
     estimated scf accuracy    <       2.15664737 Ry

     iteration #  2     ecut=    40.00 Ry     beta= 0.12
     Davidson diagonalization with overlap
     ethr =  1.38E-03,  avg # of iterations =  2.0

     total cpu time spent up to now is       21.1 secs

     total energy              =   -1660.34412599 Ry
     estimated scf accuracy    <       1.19170393 Ry

     iteration #  3     ecut=    40.00 Ry     beta= 0.12
     Davidson diagonalization with overlap
     ethr =  7.64E-04,  avg # of iterations =  2.1

     total cpu time spent up to now is       28.3 secs

     total energy              =   -1660.25217184 Ry
     estimated scf accuracy    <       0.37522053 Ry

     iteration #  4     ecut=    40.00 Ry     beta= 0.12
     Davidson diagonalization with overlap
     ethr =  2.41E-04,  avg # of iterations = 10.5

     total cpu time spent up to now is       45.4 secs

     total energy              =   -1660.29105079 Ry
     estimated scf accuracy    <       0.09758676 Ry

     iteration #  5     ecut=    40.00 Ry     beta= 0.12
     Davidson diagonalization with overlap
     ethr =  6.26E-05,  avg # of iterations =  5.4

     total cpu time spent up to now is       57.5 secs

     total energy              =   -1660.28971199 Ry
     estimated scf accuracy    <       0.14145656 Ry

     iteration #  6     ecut=    40.00 Ry     beta= 0.12
     Davidson diagonalization with overlap
     ethr =  6.26E-05,  avg # of iterations =  2.8

     total cpu time spent up to now is       65.4 secs

     total energy              =   -1660.30556083 Ry
     estimated scf accuracy    <       0.01471145 Ry

     iteration #  7     ecut=    40.00 Ry     beta= 0.12
     Davidson diagonalization with overlap
     c_bands:  1 eigenvalues not converged
     ethr =  9.43E-06,  avg # of iterations =  6.4

     total cpu time spent up to now is       78.9 secs

     total energy              =   -1660.30551315 Ry
     estimated scf accuracy    <       0.00961797 Ry

     iteration #  8     ecut=    40.00 Ry     beta= 0.12
     Davidson diagonalization with overlap
     c_bands:  1 eigenvalues not converged
     c_bands:  1 eigenvalues not converged
     c_bands:  1 eigenvalues not converged
     c_bands:  1 eigenvalues not converged
     ethr =  6.17E-06,  avg # of iterations =  3.3

     total cpu time spent up to now is       88.2 secs

     total energy              =   -1660.30540804 Ry
     estimated scf accuracy    <       0.00325125 Ry

     iteration #  9     ecut=    40.00 Ry     beta= 0.12
     Davidson diagonalization with overlap
     ethr =  2.08E-06,  avg # of iterations =  5.3

     total cpu time spent up to now is      100.8 secs

     total energy              =   -1660.30611873 Ry
     estimated scf accuracy    <       0.00066782 Ry

     iteration # 10     ecut=    40.00 Ry     beta= 0.12
     Davidson diagonalization with overlap
     ethr =  4.28E-07,  avg # of iterations =  6.0

     total cpu time spent up to now is      110.6 secs

     total energy              =   -1660.30607175 Ry
     estimated scf accuracy    <       0.00040874 Ry

     iteration # 11     ecut=    40.00 Ry     beta= 0.12
     Davidson diagonalization with overlap
     ethr =  2.62E-07,  avg # of iterations =  3.5

     total cpu time spent up to now is      120.1 secs

     total energy              =   -1660.30615888 Ry
     estimated scf accuracy    <       0.00034128 Ry

     iteration # 12     ecut=    40.00 Ry     beta= 0.12
     Davidson diagonalization with overlap
     ethr =  2.19E-07,  avg # of iterations =  2.2

     total cpu time spent up to now is      128.2 secs

     total energy              =   -1660.30623749 Ry
     estimated scf accuracy    <       0.00002479 Ry

     iteration # 13     ecut=    40.00 Ry     beta= 0.12
     Davidson diagonalization with overlap
     ethr =  1.59E-08,  avg # of iterations =  7.3

     total cpu time spent up to now is      146.5 secs

     total energy              =   -1660.30627618 Ry
     estimated scf accuracy    <       0.00001967 Ry

     iteration # 14     ecut=    40.00 Ry     beta= 0.12
     Davidson diagonalization with overlap
     ethr =  1.26E-08,  avg # of iterations =  1.1

     total cpu time spent up to now is      152.8 secs

     total energy              =   -1660.30627846 Ry
     estimated scf accuracy    <       0.00000587 Ry

     iteration # 15     ecut=    40.00 Ry     beta= 0.12
     Davidson diagonalization with overlap
     ethr =  3.76E-09,  avg # of iterations =  4.1

     total cpu time spent up to now is      163.3 secs

     total energy              =   -1660.30628111 Ry
     estimated scf accuracy    <       0.00001881 Ry

     iteration # 16     ecut=    40.00 Ry     beta= 0.12
     Davidson diagonalization with overlap
     ethr =  3.76E-09,  avg # of iterations =  4.0

     total cpu time spent up to now is      172.8 secs

     total energy              =   -1660.30628704 Ry
     estimated scf accuracy    <       0.00000213 Ry

     iteration # 17     ecut=    40.00 Ry     beta= 0.12
     Davidson diagonalization with overlap
     ethr =  1.37E-09,  avg # of iterations =  2.0

     total cpu time spent up to now is      179.9 secs

     End of self-consistent calculation

     Number of k-points >= 100: set verbosity='high' to print the bands.

     the Fermi energy is     6.9689 ev

!    total energy              =   -1660.30629620 Ry
     estimated scf accuracy    <       0.00000020 Ry
     smearing contrib. (-TS)   =      -0.00166545 Ry
     internal energy E=F+TS    =   -1660.30463075 Ry

     The total energy is F=E-TS. E is the sum of the following terms:
     one-electron contribution =   -1099.59667867 Ry
     hartree contribution      =     626.02737778 Ry
     xc contribution           =    -533.52777466 Ry
     ewald contribution        =    -652.94498571 Ry
     Dispersion Correction     =      -0.26256950 Ry

     convergence has been achieved in  17 iterations

     Writing all to output data dir ./test.save/ :
     XML data file, charge density, pseudopotentials, collected wavefunctions
 
     init_run     :      3.09s CPU      3.20s WALL (       1 calls)
     electrons    :    174.35s CPU    176.28s WALL (       1 calls)

     Called by init_run:
     wfcinit      :      2.95s CPU      3.02s WALL (       1 calls)
     potinit      :      0.01s CPU      0.01s WALL (       1 calls)
     hinit0       :      0.05s CPU      0.06s WALL (       1 calls)

     Called by electrons:
     c_bands      :    158.90s CPU    160.43s WALL (      17 calls)
     sum_band     :     14.92s CPU     15.23s WALL (      17 calls)
     v_of_rho     :      0.14s CPU      0.16s WALL (      18 calls)
     newd         :      0.31s CPU      0.34s WALL (      18 calls)
     mix_rho      :      0.03s CPU      0.03s WALL (      17 calls)
     energy_londo :      0.03s CPU      0.03s WALL (       1 calls)

     Called by c_bands:
     init_us_2    :      2.10s CPU      2.15s WALL (    2835 calls)
     cegterg      :    133.36s CPU    134.72s WALL (    1377 calls)

     Called by *egterg:
     cdiaghg      :     46.80s CPU     46.96s WALL (    7065 calls)
     h_psi        :     63.13s CPU     64.20s WALL (    7146 calls)
     s_psi        :      7.89s CPU      7.95s WALL (    7146 calls)
     g_psi        :      0.30s CPU      0.30s WALL (    5688 calls)

     Called by h_psi:
     h_psi:calbec :      8.12s CPU      8.22s WALL (    7146 calls)
     vloc_psi     :     46.57s CPU     47.48s WALL (    7146 calls)
     add_vuspsi   :      7.98s CPU      8.05s WALL (    7146 calls)

     General routines
     calbec       :     10.81s CPU     10.94s WALL (    8523 calls)
     fft          :      0.07s CPU      0.08s WALL (     232 calls)
     ffts         :      0.01s CPU      0.01s WALL (      35 calls)
     fftw         :     47.89s CPU     48.83s WALL (  814994 calls)
     interpolate  :      0.01s CPU      0.01s WALL (      18 calls)
 
     Parallel routines
 
     PWSCF        :    179.05s CPU    194.48s WALL

 
   This run was terminated on:  17:11:12   9May2025            

=------------------------------------------------------------------------------=
   JOB DONE.
=------------------------------------------------------------------------------=
