
     Program PWSCF v.7.3.1 starts on 24Apr2025 at  2:10: 0 

     This program is part of the open-source Quantum ESPRESSO suite
     for quantum simulation of materials; please cite
         "P. Giannozzi et al., J. Phys.:Condens. Matter 21 395502 (2009);
         "P. Giannozzi et al., J. Phys.:Condens. Matter 29 465901 (2017);
         "P. Giannozzi et al., J. Chem. Phys. 152 154105 (2020);
          URL http://www.quantum-espresso.org", 
     in publications or presentations arising from this work. More details at
     http://www.quantum-espresso.org/quote

     Parallel version (MPI & OpenMP), running on     128 processor cores
     Number of MPI processes:               128
     Threads/MPI process:                     1

     MPI processes distributed on     2 nodes
     1002735 MiB available memory on the printing compute node when the environment starts
 
     Waiting for input...
     Reading input from standard input
Warning: card &CELL ignored
Warning: card   PRESS = 0.0, ignored
Warning: card / ignored

     Current dimensions of program PWSCF are:
     Max number of different atomic species (ntypx) = 10
     Max number of k-points (npk) =  40000
     Max angular momentum in pseudopotentials (lmaxx) =  4

     IMPORTANT: XC functional enforced from input :
     Exchange-correlation= PBE
                           (   1   4   3   4   0   0   0)
     Any further DFT definition will be discarded
     Please, verify this is what you really want

 
     K-points division:     npool     =       4
     R & G space division:  proc/nbgrp/npool/nimage =      32
     Subspace diagonalization in iterative solution of the eigenvalue problem:
     a serial algorithm will be used

 
     Parallelization info
     --------------------
     sticks:   dense  smooth     PW     G-vecs:    dense   smooth      PW
     Min         100      50     14                 9624     3400     517
     Max         101      51     16                 9637     3407     525
     Sum        3217    1615    463               308159   108923   16645
 
     Using Slab Decomposition
 


     bravais-lattice index     =            4
     lattice parameter (alat)  =      12.0809  a.u.
     unit-cell volume          =    3186.3136 (a.u.)^3
     number of atoms/cell      =           20
     number of atomic types    =            4
     number of electrons       =       156.00
     number of Kohn-Sham states=           94
     kinetic-energy cutoff     =      40.0000  Ry
     charge density cutoff     =     320.0000  Ry
     scf convergence threshold =      1.0E-06
     mixing beta               =       0.1200
     number of iterations used =            8  plain     mixing
     Exchange-correlation= PBE
                           (   1   4   3   4   0   0   0)

     celldm(1)=  12.080900  celldm(2)=   0.000000  celldm(3)=   2.086700
     celldm(4)=   0.000000  celldm(5)=   0.000000  celldm(6)=   0.000000

     crystal axes: (cart. coord. in units of alat)
               a(1) = (   1.000000   0.000000   0.000000 )  
               a(2) = (  -0.500000   0.866025   0.000000 )  
               a(3) = (   0.000000   0.000000   2.086700 )  

     reciprocal axes: (cart. coord. in units 2 pi/alat)
               b(1) = (  1.000000  0.577350  0.000000 )  
               b(2) = (  0.000000  1.154701  0.000000 )  
               b(3) = (  0.000000  0.000000  0.479226 )  


     PseudoPot. # 1 for P  read from file:
     ./p_pbe_v1.5.uspp.F.UPF
     MD5 check sum: eb82b2c351da08c5f5f8709277dc7ee5
     Pseudo is Ultrasoft + core correction, Zval =  5.0
     Generated by new atomic code, or converted to UPF format
     Using radial grid of  903 points,  6 beta functions with: 
                l(1) =   0
                l(2) =   0
                l(3) =   1
                l(4) =   1
                l(5) =   2
                l(6) =   2
     Q(r) pseudized with  8 coefficients,  rinner =    1.300   1.300   1.300
                                                       1.300   1.300

     PseudoPot. # 2 for Cu read from file:
     ./cu_pbe_v1.2.uspp.F.UPF
     MD5 check sum: 6e991ff952a84172a2a52a1c1e996048
     Pseudo is Ultrasoft + core correction, Zval = 19.0
     Generated by new atomic code, or converted to UPF format
     Using radial grid of  867 points,  6 beta functions with: 
                l(1) =   0
                l(2) =   0
                l(3) =   1
                l(4) =   1
                l(5) =   2
                l(6) =   2
     Q(r) pseudized with  8 coefficients,  rinner =    1.150   1.150   1.150
                                                       1.150   1.150

     PseudoPot. # 3 for In read from file:
     ./in_pbe_v1.4.uspp.F.UPF
     MD5 check sum: 90777abd96fbb83f2e67db2a40c566b9
     Pseudo is Ultrasoft + core correction, Zval = 13.0
     Generated by new atomic code, or converted to UPF format
     Using radial grid of  889 points,  6 beta functions with: 
                l(1) =   0
                l(2) =   0
                l(3) =   1
                l(4) =   1
                l(5) =   2
                l(6) =   2
     Q(r) pseudized with  6 coefficients,  rinner =    1.400   1.400   1.400
                                                       1.400   1.400

     PseudoPot. # 4 for Se read from file:
     ./se_pbe_v1.uspp.F.UPF
     MD5 check sum: 1b3568f3a8ae88f9a2a0ad0698632c85
     Pseudo is Ultrasoft + core correction, Zval =  6.0
     Generated by new atomic code, or converted to UPF format
     Using radial grid of  877 points,  6 beta functions with: 
                l(1) =   0
                l(2) =   0
                l(3) =   1
                l(4) =   1
                l(5) =   2
                l(6) =   2
     Q(r) pseudized with  8 coefficients,  rinner =    1.300   1.300   1.300
                                                       1.300   1.300

     atomic species   valence    mass     pseudopotential
     P                 5.00    30.97400     P ( 1.00)
     Cu               19.00    63.54600     Cu( 1.00)
     In               13.00   114.81800     In( 1.00)
     Se                6.00    78.97100     Se( 1.00)

     No symmetry found



   Cartesian axes

     site n.     atom                  positions (alat units)
         1        Cu     tau(   1) = (   0.5000500   0.2886463   0.6020498  )
         2        Cu     tau(   2) = (  -0.0000500   0.5773791   1.5594264  )
         3        In     tau(   3) = (   0.0000000   0.0000000   0.5136945  )
         4        In     tau(   4) = (   0.0000000   0.0000000   1.5878268  )
         5        P      tau(   5) = (  -0.0000500   0.5773791   0.3509537  )
         6        P      tau(   6) = (  -0.0000500   0.5773791   0.6942909  )
         7        P      tau(   7) = (   0.5000500   0.2886463  -0.3585875  )
         8        P      tau(   8) = (   0.5000500   0.2886463   1.3917089  )
         9        Se     tau(   9) = (  -0.1605500   0.2945352   0.2220995  )
        10        Se     tau(  10) = (  -0.1748000  -0.2863080   0.2314150  )
        11        Se     tau(  11) = (   0.3353500  -0.0082272   0.2523730  )
        12        Se     tau(  12) = (  -0.3353500  -0.0082272   0.8266991  )
        13        Se     tau(  13) = (   0.1605500   0.2945352   0.7691263  )
        14        Se     tau(  14) = (   0.1748000  -0.2863080   0.8320089  )
        15        Se     tau(  15) = (   0.1605500  -0.2945352  -0.2241258  )
        16        Se     tau(  16) = (   0.1748000   0.2863080  -0.2512406  )
        17        Se     tau(  17) = (  -0.3353500   0.0082272  -0.2284084  )
        18        Se     tau(  18) = (   0.3353500   0.0082272   1.2877495  )
        19        Se     tau(  19) = (  -0.1605500  -0.2945352   1.2921616  )
        20        Se     tau(  20) = (  -0.1748000   0.2863080   1.2650347  )

     -------------------------------------------------
     Parameters for Dispersion (Grimme-D2) Correction:
     -------------------------------------------------
       atom      VdW radius       C_6     

        P          3.222        271.980
        Cu         2.952        374.666
        In         3.160       1294.678
        Se         3.347        438.498

     number of k points=   324  Gaussian smearing, width (Ry)=  0.0200

     Number of k-points >= 100: set verbosity='high' to print them.

     Dense  grid:   308159 G-vectors     FFT dimensions: (  72,  72, 144)

     Smooth grid:   108923 G-vectors     FFT dimensions: (  50,  50, 108)

     Estimated max dynamical RAM per process >      72.07 MB

     Estimated total dynamical RAM >       8.79 GB

     Initial potential from superposition of free atoms

     starting charge     150.9985, renormalised to     156.0000
     Starting wfcs are  108 randomized atomic wfcs

     total cpu time spent up to now is        3.5 secs

     per-process dynamical memory:    91.0 Mb

     Self-consistent Calculation

     iteration #  1     ecut=    40.00 Ry     beta= 0.12
     Davidson diagonalization with overlap
     ethr =  1.00E-02,  avg # of iterations =  2.2

     total cpu time spent up to now is       13.1 secs

     total energy              =   -1660.47383590 Ry
     estimated scf accuracy    <       2.28819848 Ry

     iteration #  2     ecut=    40.00 Ry     beta= 0.12
     Davidson diagonalization with overlap
     ethr =  1.47E-03,  avg # of iterations =  2.1

     total cpu time spent up to now is       21.0 secs

     total energy              =   -1660.33507352 Ry
     estimated scf accuracy    <       1.17931153 Ry

     iteration #  3     ecut=    40.00 Ry     beta= 0.12
     Davidson diagonalization with overlap
     ethr =  7.56E-04,  avg # of iterations =  2.5

     total cpu time spent up to now is       28.8 secs

     total energy              =   -1660.22221606 Ry
     estimated scf accuracy    <       0.40984493 Ry

     iteration #  4     ecut=    40.00 Ry     beta= 0.12
     Davidson diagonalization with overlap
     ethr =  2.63E-04,  avg # of iterations =  9.6

     total cpu time spent up to now is       45.3 secs

     total energy              =   -1660.27867800 Ry
     estimated scf accuracy    <       0.08757535 Ry

     iteration #  5     ecut=    40.00 Ry     beta= 0.12
     Davidson diagonalization with overlap
     ethr =  5.61E-05,  avg # of iterations =  6.4

     total cpu time spent up to now is       57.1 secs

     total energy              =   -1660.29104158 Ry
     estimated scf accuracy    <       0.05888607 Ry

     iteration #  6     ecut=    40.00 Ry     beta= 0.12
     Davidson diagonalization with overlap
     ethr =  3.77E-05,  avg # of iterations =  1.9

     total cpu time spent up to now is       63.9 secs

     total energy              =   -1660.28086624 Ry
     estimated scf accuracy    <       0.05533612 Ry

     iteration #  7     ecut=    40.00 Ry     beta= 0.12
     Davidson diagonalization with overlap
     ethr =  3.55E-05,  avg # of iterations =  2.1

     total cpu time spent up to now is       71.2 secs

     total energy              =   -1660.28706321 Ry
     estimated scf accuracy    <       0.00625280 Ry

     iteration #  8     ecut=    40.00 Ry     beta= 0.12
     Davidson diagonalization with overlap
     c_bands:  1 eigenvalues not converged
     c_bands:  1 eigenvalues not converged
     ethr =  4.01E-06,  avg # of iterations =  9.0

     total cpu time spent up to now is       87.2 secs

     total energy              =   -1660.28662241 Ry
     estimated scf accuracy    <       0.00839814 Ry

     iteration #  9     ecut=    40.00 Ry     beta= 0.12
     Davidson diagonalization with overlap
     ethr =  4.01E-06,  avg # of iterations =  2.3

     total cpu time spent up to now is       95.0 secs

     total energy              =   -1660.28716574 Ry
     estimated scf accuracy    <       0.00102278 Ry

     iteration # 10     ecut=    40.00 Ry     beta= 0.12
     Davidson diagonalization with overlap
     ethr =  6.56E-07,  avg # of iterations =  5.0

     total cpu time spent up to now is      106.3 secs

     total energy              =   -1660.28756538 Ry
     estimated scf accuracy    <       0.00079752 Ry

     iteration # 11     ecut=    40.00 Ry     beta= 0.12
     Davidson diagonalization with overlap
     ethr =  5.11E-07,  avg # of iterations =  1.4

     total cpu time spent up to now is      113.0 secs

     total energy              =   -1660.28751944 Ry
     estimated scf accuracy    <       0.00033769 Ry

     iteration # 12     ecut=    40.00 Ry     beta= 0.12
     Davidson diagonalization with overlap
     ethr =  2.16E-07,  avg # of iterations =  3.9

     total cpu time spent up to now is      122.1 secs

     total energy              =   -1660.28759819 Ry
     estimated scf accuracy    <       0.00000922 Ry

     iteration # 13     ecut=    40.00 Ry     beta= 0.12
     Davidson diagonalization with overlap
     ethr =  5.91E-09,  avg # of iterations =  8.7

     total cpu time spent up to now is      145.0 secs

     total energy              =   -1660.28763313 Ry
     estimated scf accuracy    <       0.00000359 Ry

     iteration # 14     ecut=    40.00 Ry     beta= 0.12
     Davidson diagonalization with overlap
     ethr =  2.30E-09,  avg # of iterations =  2.2

     total cpu time spent up to now is      152.5 secs

     total energy              =   -1660.28763780 Ry
     estimated scf accuracy    <       0.00000189 Ry

     iteration # 15     ecut=    40.00 Ry     beta= 0.12
     Davidson diagonalization with overlap
     ethr =  1.21E-09,  avg # of iterations =  2.0

     total cpu time spent up to now is      159.8 secs

     End of self-consistent calculation

     Number of k-points >= 100: set verbosity='high' to print the bands.

     the Fermi energy is     6.8976 ev

!    total energy              =   -1660.28765329 Ry
     estimated scf accuracy    <       0.00000044 Ry
     smearing contrib. (-TS)   =      -0.00110712 Ry
     internal energy E=F+TS    =   -1660.28654617 Ry

     The total energy is F=E-TS. E is the sum of the following terms:
     one-electron contribution =   -1062.83927171 Ry
     hartree contribution      =     608.13540206 Ry
     xc contribution           =    -533.46624876 Ry
     ewald contribution        =    -671.85419261 Ry
     Dispersion Correction     =      -0.26223515 Ry

     convergence has been achieved in  15 iterations

     Writing all to output data dir ./test.save/ :
     XML data file, charge density, pseudopotentials, collected wavefunctions
 
     init_run     :      3.03s CPU      3.11s WALL (       1 calls)
     electrons    :    154.59s CPU    156.30s WALL (       1 calls)

     Called by init_run:
     wfcinit      :      2.87s CPU      2.94s WALL (       1 calls)
     potinit      :      0.04s CPU      0.04s WALL (       1 calls)
     hinit0       :      0.03s CPU      0.04s WALL (       1 calls)

     Called by electrons:
     c_bands      :    140.96s CPU    142.33s WALL (      15 calls)
     sum_band     :     13.16s CPU     13.41s WALL (      15 calls)
     v_of_rho     :      0.12s CPU      0.14s WALL (      16 calls)
     newd         :      0.29s CPU      0.31s WALL (      16 calls)
     mix_rho      :      0.02s CPU      0.02s WALL (      15 calls)
     energy_londo :      0.03s CPU      0.03s WALL (       1 calls)

     Called by c_bands:
     init_us_2    :      2.02s CPU      2.07s WALL (    2511 calls)
     cegterg      :    119.58s CPU    120.79s WALL (    1215 calls)

     Called by *egterg:
     cdiaghg      :     41.21s CPU     41.35s WALL (    6213 calls)
     h_psi        :     57.29s CPU     58.24s WALL (    6294 calls)
     s_psi        :      7.13s CPU      7.19s WALL (    6294 calls)
     g_psi        :      0.27s CPU      0.28s WALL (    4998 calls)

     Called by h_psi:
     h_psi:calbec :      7.31s CPU      7.40s WALL (    6294 calls)
     vloc_psi     :     42.31s CPU     43.12s WALL (    6294 calls)
     add_vuspsi   :      7.25s CPU      7.31s WALL (    6294 calls)

     General routines
     calbec       :      9.65s CPU      9.76s WALL (    7509 calls)
     fft          :      0.05s CPU      0.07s WALL (     206 calls)
     ffts         :      0.00s CPU      0.01s WALL (      31 calls)
     fftw         :     43.18s CPU     43.99s WALL (  734708 calls)
     interpolate  :      0.01s CPU      0.01s WALL (      16 calls)
 
     Parallel routines
 
     PWSCF        :    159.21s CPU    174.14s WALL

 
   This run was terminated on:   2:12:54  24Apr2025            

=------------------------------------------------------------------------------=
   JOB DONE.
=------------------------------------------------------------------------------=
