
     Program PWSCF v.7.3.1 starts on  9May2025 at  8:39: 8 

     This program is part of the open-source Quantum ESPRESSO suite
     for quantum simulation of materials; please cite
         "P. Giannozzi et al., J. Phys.:Condens. Matter 21 395502 (2009);
         "P. Giannozzi et al., J. Phys.:Condens. Matter 29 465901 (2017);
         "P. Giannozzi et al., J. Chem. Phys. 152 154105 (2020);
          URL http://www.quantum-espresso.org", 
     in publications or presentations arising from this work. More details at
     http://www.quantum-espresso.org/quote

     Parallel version (MPI & OpenMP), running on     128 processor cores
     Number of MPI processes:               128
     Threads/MPI process:                     1

     MPI processes distributed on     2 nodes
     1021481 MiB available memory on the printing compute node when the environment starts
 
     Waiting for input...
     Reading input from standard input
Warning: card &CELL ignored
Warning: card   PRESS = 0.0, ignored
Warning: card / ignored

     Current dimensions of program PWSCF are:
     Max number of different atomic species (ntypx) = 10
     Max number of k-points (npk) =  40000
     Max angular momentum in pseudopotentials (lmaxx) =  4

     IMPORTANT: XC functional enforced from input :
     Exchange-correlation= PBE
                           (   1   4   3   4   0   0   0)
     Any further DFT definition will be discarded
     Please, verify this is what you really want

 
     K-points division:     npool     =       4
     R & G space division:  proc/nbgrp/npool/nimage =      32
     Subspace diagonalization in iterative solution of the eigenvalue problem:
     a serial algorithm will be used

 
     Parallelization info
     --------------------
     sticks:   dense  smooth     PW     G-vecs:    dense   smooth      PW
     Min         100      50     14                 9594     3390     516
     Max         101      51     15                 9607     3397     525
     Sum        3217    1615    451               307175   108599   16633
 
     Using Slab Decomposition
 


     bravais-lattice index     =            4
     lattice parameter (alat)  =      12.0717  a.u.
     unit-cell volume          =    3177.3402 (a.u.)^3
     number of atoms/cell      =           20
     number of atomic types    =            4
     number of electrons       =       156.00
     number of Kohn-Sham states=           94
     kinetic-energy cutoff     =      40.0000  Ry
     charge density cutoff     =     320.0000  Ry
     scf convergence threshold =      1.0E-06
     mixing beta               =       0.1200
     number of iterations used =            8  plain     mixing
     Exchange-correlation= PBE
                           (   1   4   3   4   0   0   0)

     celldm(1)=  12.071670  celldm(2)=   0.000000  celldm(3)=   2.085600
     celldm(4)=   0.000000  celldm(5)=   0.000000  celldm(6)=   0.000000

     crystal axes: (cart. coord. in units of alat)
               a(1) = (   1.000000   0.000000   0.000000 )  
               a(2) = (  -0.500000   0.866025   0.000000 )  
               a(3) = (   0.000000   0.000000   2.085600 )  

     reciprocal axes: (cart. coord. in units 2 pi/alat)
               b(1) = (  1.000000  0.577350  0.000000 )  
               b(2) = (  0.000000  1.154701  0.000000 )  
               b(3) = (  0.000000  0.000000  0.479478 )  


     PseudoPot. # 1 for P  read from file:
     ./p_pbe_v1.5.uspp.F.UPF
     MD5 check sum: eb82b2c351da08c5f5f8709277dc7ee5
     Pseudo is Ultrasoft + core correction, Zval =  5.0
     Generated by new atomic code, or converted to UPF format
     Using radial grid of  903 points,  6 beta functions with: 
                l(1) =   0
                l(2) =   0
                l(3) =   1
                l(4) =   1
                l(5) =   2
                l(6) =   2
     Q(r) pseudized with  8 coefficients,  rinner =    1.300   1.300   1.300
                                                       1.300   1.300

     PseudoPot. # 2 for Cu read from file:
     ./cu_pbe_v1.2.uspp.F.UPF
     MD5 check sum: 6e991ff952a84172a2a52a1c1e996048
     Pseudo is Ultrasoft + core correction, Zval = 19.0
     Generated by new atomic code, or converted to UPF format
     Using radial grid of  867 points,  6 beta functions with: 
                l(1) =   0
                l(2) =   0
                l(3) =   1
                l(4) =   1
                l(5) =   2
                l(6) =   2
     Q(r) pseudized with  8 coefficients,  rinner =    1.150   1.150   1.150
                                                       1.150   1.150

     PseudoPot. # 3 for In read from file:
     ./in_pbe_v1.4.uspp.F.UPF
     MD5 check sum: 90777abd96fbb83f2e67db2a40c566b9
     Pseudo is Ultrasoft + core correction, Zval = 13.0
     Generated by new atomic code, or converted to UPF format
     Using radial grid of  889 points,  6 beta functions with: 
                l(1) =   0
                l(2) =   0
                l(3) =   1
                l(4) =   1
                l(5) =   2
                l(6) =   2
     Q(r) pseudized with  6 coefficients,  rinner =    1.400   1.400   1.400
                                                       1.400   1.400

     PseudoPot. # 4 for Se read from file:
     ./se_pbe_v1.uspp.F.UPF
     MD5 check sum: 1b3568f3a8ae88f9a2a0ad0698632c85
     Pseudo is Ultrasoft + core correction, Zval =  6.0
     Generated by new atomic code, or converted to UPF format
     Using radial grid of  877 points,  6 beta functions with: 
                l(1) =   0
                l(2) =   0
                l(3) =   1
                l(4) =   1
                l(5) =   2
                l(6) =   2
     Q(r) pseudized with  8 coefficients,  rinner =    1.300   1.300   1.300
                                                       1.300   1.300

     atomic species   valence    mass     pseudopotential
     P                 5.00    30.97400     P ( 1.00)
     Cu               19.00    63.54600     Cu( 1.00)
     In               13.00   114.81800     In( 1.00)
     Se                6.00    78.97100     Se( 1.00)

     No symmetry found



   Cartesian axes

     site n.     atom                  positions (alat units)
         1        Cu     tau(   1) = (   0.4999407   0.2887094   0.4590982  )
         2        Cu     tau(   2) = (   0.0000593   0.5773160   1.5406164  )
         3        In     tau(   3) = (   0.9999624   0.0000217   0.5624705  )
         4        In     tau(   4) = (  -0.4999624   0.8660037   1.6039211  )
         5        P      tau(   5) = (  -0.0000153   0.5773583   0.3397523  )
         6        P      tau(   6) = (  -0.0000146   0.5773595   0.7086722  )
         7        P      tau(   7) = (   0.5000153   0.2886671   1.7250839  )
         8        P      tau(   8) = (   0.5000146   0.2886659   1.3957699  )
         9        Se     tau(   9) = (   0.8210490   0.2948570   0.2506534  )
        10        Se     tau(  10) = (   0.3341170   0.5636510   0.2186502  )
        11        Se     tau(  11) = (   0.3447906   0.0075501   0.2214786  )
        12        Se     tau(  12) = (   0.6551709   0.0075477   0.7488130  )
        13        Se     tau(  13) = (   0.1789224   0.2948461   0.8251518  )
        14        Se     tau(  14) = (   0.6658567   0.5636530   0.7843801  )
        15        Se     tau(  15) = (  -0.3210490   0.5711684   1.8173490  )
        16        Se     tau(  16) = (   0.1658830   0.3023744   1.8091423  )
        17        Se     tau(  17) = (   0.1552094   0.8584753   1.8293493  )
        18        Se     tau(  18) = (  -0.1551709   0.8584777   1.2606296  )
        19        Se     tau(  19) = (   0.3210776   0.5711793   1.3351477  )
        20        Se     tau(  20) = (  -0.1658567   0.3023724   1.3203748  )

     -------------------------------------------------
     Parameters for Dispersion (Grimme-D2) Correction:
     -------------------------------------------------
       atom      VdW radius       C_6     

        P          3.222        271.980
        Cu         2.952        374.666
        In         3.160       1294.678
        Se         3.347        438.498

     number of k points=   324  Gaussian smearing, width (Ry)=  0.0200

     Number of k-points >= 100: set verbosity='high' to print them.

     Dense  grid:   307175 G-vectors     FFT dimensions: (  72,  72, 144)

     Smooth grid:   108599 G-vectors     FFT dimensions: (  50,  50, 108)

     Estimated max dynamical RAM per process >      71.90 MB

     Estimated total dynamical RAM >       8.77 GB

     Initial potential from superposition of free atoms

     starting charge     150.9985, renormalised to     156.0000
     Starting wfcs are  108 randomized atomic wfcs

     total cpu time spent up to now is        3.4 secs

     per-process dynamical memory:    91.0 Mb

     Self-consistent Calculation

     iteration #  1     ecut=    40.00 Ry     beta= 0.12
     Davidson diagonalization with overlap
     ethr =  1.00E-02,  avg # of iterations =  3.0

     total cpu time spent up to now is       13.3 secs

     total energy              =   -1660.45382522 Ry
     estimated scf accuracy    <       2.18014040 Ry

     iteration #  2     ecut=    40.00 Ry     beta= 0.12
     Davidson diagonalization with overlap
     ethr =  1.40E-03,  avg # of iterations =  2.0

     total cpu time spent up to now is       21.0 secs

     total energy              =   -1660.29466759 Ry
     estimated scf accuracy    <       1.16886069 Ry

     iteration #  3     ecut=    40.00 Ry     beta= 0.12
     Davidson diagonalization with overlap
     ethr =  7.49E-04,  avg # of iterations =  2.0

     total cpu time spent up to now is       28.2 secs

     total energy              =   -1660.20115999 Ry
     estimated scf accuracy    <       0.37767825 Ry

     iteration #  4     ecut=    40.00 Ry     beta= 0.12
     Davidson diagonalization with overlap
     ethr =  2.42E-04,  avg # of iterations = 10.3

     total cpu time spent up to now is       44.9 secs

     total energy              =   -1660.25308908 Ry
     estimated scf accuracy    <       0.09313347 Ry

     iteration #  5     ecut=    40.00 Ry     beta= 0.12
     Davidson diagonalization with overlap
     ethr =  5.97E-05,  avg # of iterations =  2.7

     total cpu time spent up to now is       53.3 secs

     total energy              =   -1660.25305818 Ry
     estimated scf accuracy    <       0.03895416 Ry

     iteration #  6     ecut=    40.00 Ry     beta= 0.12
     Davidson diagonalization with overlap
     c_bands:  1 eigenvalues not converged
     c_bands:  1 eigenvalues not converged
     c_bands:  1 eigenvalues not converged
     c_bands:  1 eigenvalues not converged
     ethr =  2.50E-05,  avg # of iterations =  4.3

     total cpu time spent up to now is       64.8 secs

     total energy              =   -1660.24566898 Ry
     estimated scf accuracy    <       0.02723193 Ry

     iteration #  7     ecut=    40.00 Ry     beta= 0.12
     Davidson diagonalization with overlap
     ethr =  1.75E-05,  avg # of iterations =  5.4

     total cpu time spent up to now is       78.0 secs

     total energy              =   -1660.24868676 Ry
     estimated scf accuracy    <       0.06006138 Ry

     iteration #  8     ecut=    40.00 Ry     beta= 0.12
     Davidson diagonalization with overlap
     ethr =  1.75E-05,  avg # of iterations =  3.0

     total cpu time spent up to now is       86.2 secs

     total energy              =   -1660.25309398 Ry
     estimated scf accuracy    <       0.00336828 Ry

     iteration #  9     ecut=    40.00 Ry     beta= 0.12
     Davidson diagonalization with overlap
     ethr =  2.16E-06,  avg # of iterations =  6.6

     total cpu time spent up to now is      100.1 secs

     total energy              =   -1660.25445989 Ry
     estimated scf accuracy    <       0.00271969 Ry

     iteration # 10     ecut=    40.00 Ry     beta= 0.12
     Davidson diagonalization with overlap
     ethr =  1.74E-06,  avg # of iterations =  1.2

     total cpu time spent up to now is      106.7 secs

     total energy              =   -1660.25393420 Ry
     estimated scf accuracy    <       0.00213108 Ry

     iteration # 11     ecut=    40.00 Ry     beta= 0.12
     Davidson diagonalization with overlap
     ethr =  1.37E-06,  avg # of iterations =  2.7

     total cpu time spent up to now is      114.6 secs

     total energy              =   -1660.25426083 Ry
     estimated scf accuracy    <       0.00006215 Ry

     iteration # 12     ecut=    40.00 Ry     beta= 0.12
     Davidson diagonalization with overlap
     ethr =  3.98E-08,  avg # of iterations =  7.2

     total cpu time spent up to now is      132.0 secs

     total energy              =   -1660.25434533 Ry
     estimated scf accuracy    <       0.00001536 Ry

     iteration # 13     ecut=    40.00 Ry     beta= 0.12
     Davidson diagonalization with overlap
     ethr =  9.85E-09,  avg # of iterations =  4.5

     total cpu time spent up to now is      142.9 secs

     total energy              =   -1660.25435195 Ry
     estimated scf accuracy    <       0.00002173 Ry

     iteration # 14     ecut=    40.00 Ry     beta= 0.12
     Davidson diagonalization with overlap
     ethr =  9.85E-09,  avg # of iterations =  2.0

     total cpu time spent up to now is      150.0 secs

     total energy              =   -1660.25435693 Ry
     estimated scf accuracy    <       0.00000637 Ry

     iteration # 15     ecut=    40.00 Ry     beta= 0.12
     Davidson diagonalization with overlap
     ethr =  4.08E-09,  avg # of iterations =  2.6

     total cpu time spent up to now is      158.6 secs

     total energy              =   -1660.25436094 Ry
     estimated scf accuracy    <       0.00000135 Ry

     iteration # 16     ecut=    40.00 Ry     beta= 0.12
     Davidson diagonalization with overlap
     ethr =  8.67E-10,  avg # of iterations =  5.3

     total cpu time spent up to now is      170.6 secs

     End of self-consistent calculation

     Number of k-points >= 100: set verbosity='high' to print the bands.

     the Fermi energy is     6.9998 ev

!    total energy              =   -1660.25437316 Ry
     estimated scf accuracy    <       0.00000022 Ry
     smearing contrib. (-TS)   =      -0.00231539 Ry
     internal energy E=F+TS    =   -1660.25205777 Ry

     The total energy is F=E-TS. E is the sum of the following terms:
     one-electron contribution =   -1108.93659324 Ry
     hartree contribution      =     630.82766207 Ry
     xc contribution           =    -533.64459998 Ry
     ewald contribution        =    -648.23762895 Ry
     Dispersion Correction     =      -0.26089767 Ry

     convergence has been achieved in  16 iterations

     Writing all to output data dir ./test.save/ :
     XML data file, charge density, pseudopotentials, collected wavefunctions
 
     init_run     :      3.00s CPU      3.10s WALL (       1 calls)
     electrons    :    165.37s CPU    167.25s WALL (       1 calls)

     Called by init_run:
     wfcinit      :      2.85s CPU      2.93s WALL (       1 calls)
     potinit      :      0.01s CPU      0.01s WALL (       1 calls)
     hinit0       :      0.04s CPU      0.06s WALL (       1 calls)

     Called by electrons:
     c_bands      :    150.90s CPU    152.33s WALL (      16 calls)
     sum_band     :     13.99s CPU     14.32s WALL (      16 calls)
     v_of_rho     :      0.13s CPU      0.15s WALL (      17 calls)
     newd         :      0.29s CPU      0.32s WALL (      17 calls)
     mix_rho      :      0.02s CPU      0.03s WALL (      16 calls)
     energy_londo :      0.03s CPU      0.03s WALL (       1 calls)

     Called by c_bands:
     init_us_2    :      2.09s CPU      2.15s WALL (    2673 calls)
     cegterg      :    125.83s CPU    127.10s WALL (    1296 calls)

     Called by *egterg:
     cdiaghg      :     44.64s CPU     44.79s WALL (    6595 calls)
     h_psi        :     59.27s CPU     60.27s WALL (    6676 calls)
     s_psi        :      7.44s CPU      7.50s WALL (    6676 calls)
     g_psi        :      0.28s CPU      0.28s WALL (    5299 calls)

     Called by h_psi:
     h_psi:calbec :      7.64s CPU      7.73s WALL (    6676 calls)
     vloc_psi     :     43.64s CPU     44.49s WALL (    6676 calls)
     add_vuspsi   :      7.55s CPU      7.62s WALL (    6676 calls)

     General routines
     calbec       :     10.17s CPU     10.28s WALL (    7972 calls)
     fft          :      0.05s CPU      0.07s WALL (     219 calls)
     ffts         :      0.01s CPU      0.01s WALL (      33 calls)
     fftw         :     44.81s CPU     45.67s WALL (  766808 calls)
     interpolate  :      0.01s CPU      0.01s WALL (      17 calls)
 
     Parallel routines
 
     PWSCF        :    169.80s CPU    184.99s WALL

 
   This run was terminated on:   8:42:13   9May2025            

=------------------------------------------------------------------------------=
   JOB DONE.
=------------------------------------------------------------------------------=
