
     Program PWSCF v.7.3.1 starts on  9May2025 at  8:29:59 

     This program is part of the open-source Quantum ESPRESSO suite
     for quantum simulation of materials; please cite
         "P. Giannozzi et al., J. Phys.:Condens. Matter 21 395502 (2009);
         "P. Giannozzi et al., J. Phys.:Condens. Matter 29 465901 (2017);
         "P. Giannozzi et al., J. Chem. Phys. 152 154105 (2020);
          URL http://www.quantum-espresso.org", 
     in publications or presentations arising from this work. More details at
     http://www.quantum-espresso.org/quote

     Parallel version (MPI & OpenMP), running on     128 processor cores
     Number of MPI processes:               128
     Threads/MPI process:                     1

     MPI processes distributed on     2 nodes
     1021522 MiB available memory on the printing compute node when the environment starts
 
     Waiting for input...
     Reading input from standard input
Warning: card &CELL ignored
Warning: card   PRESS = 0.0, ignored
Warning: card / ignored

     Current dimensions of program PWSCF are:
     Max number of different atomic species (ntypx) = 10
     Max number of k-points (npk) =  40000
     Max angular momentum in pseudopotentials (lmaxx) =  4

     IMPORTANT: XC functional enforced from input :
     Exchange-correlation= PBE
                           (   1   4   3   4   0   0   0)
     Any further DFT definition will be discarded
     Please, verify this is what you really want

 
     K-points division:     npool     =       4
     R & G space division:  proc/nbgrp/npool/nimage =      32
     Subspace diagonalization in iterative solution of the eigenvalue problem:
     a serial algorithm will be used

 
     Parallelization info
     --------------------
     sticks:   dense  smooth     PW     G-vecs:    dense   smooth      PW
     Min         100      50     14                 9594     3390     516
     Max         101      51     15                 9607     3397     525
     Sum        3217    1615    451               307175   108599   16633
 
     Using Slab Decomposition
 


     bravais-lattice index     =            4
     lattice parameter (alat)  =      12.0717  a.u.
     unit-cell volume          =    3177.3402 (a.u.)^3
     number of atoms/cell      =           20
     number of atomic types    =            4
     number of electrons       =       156.00
     number of Kohn-Sham states=           94
     kinetic-energy cutoff     =      40.0000  Ry
     charge density cutoff     =     320.0000  Ry
     scf convergence threshold =      1.0E-06
     mixing beta               =       0.1200
     number of iterations used =            8  plain     mixing
     Exchange-correlation= PBE
                           (   1   4   3   4   0   0   0)

     celldm(1)=  12.071670  celldm(2)=   0.000000  celldm(3)=   2.085600
     celldm(4)=   0.000000  celldm(5)=   0.000000  celldm(6)=   0.000000

     crystal axes: (cart. coord. in units of alat)
               a(1) = (   1.000000   0.000000   0.000000 )  
               a(2) = (  -0.500000   0.866025   0.000000 )  
               a(3) = (   0.000000   0.000000   2.085600 )  

     reciprocal axes: (cart. coord. in units 2 pi/alat)
               b(1) = (  1.000000  0.577350  0.000000 )  
               b(2) = (  0.000000  1.154701  0.000000 )  
               b(3) = (  0.000000  0.000000  0.479478 )  


     PseudoPot. # 1 for P  read from file:
     ./p_pbe_v1.5.uspp.F.UPF
     MD5 check sum: eb82b2c351da08c5f5f8709277dc7ee5
     Pseudo is Ultrasoft + core correction, Zval =  5.0
     Generated by new atomic code, or converted to UPF format
     Using radial grid of  903 points,  6 beta functions with: 
                l(1) =   0
                l(2) =   0
                l(3) =   1
                l(4) =   1
                l(5) =   2
                l(6) =   2
     Q(r) pseudized with  8 coefficients,  rinner =    1.300   1.300   1.300
                                                       1.300   1.300

     PseudoPot. # 2 for Cu read from file:
     ./cu_pbe_v1.2.uspp.F.UPF
     MD5 check sum: 6e991ff952a84172a2a52a1c1e996048
     Pseudo is Ultrasoft + core correction, Zval = 19.0
     Generated by new atomic code, or converted to UPF format
     Using radial grid of  867 points,  6 beta functions with: 
                l(1) =   0
                l(2) =   0
                l(3) =   1
                l(4) =   1
                l(5) =   2
                l(6) =   2
     Q(r) pseudized with  8 coefficients,  rinner =    1.150   1.150   1.150
                                                       1.150   1.150

     PseudoPot. # 3 for In read from file:
     ./in_pbe_v1.4.uspp.F.UPF
     MD5 check sum: 90777abd96fbb83f2e67db2a40c566b9
     Pseudo is Ultrasoft + core correction, Zval = 13.0
     Generated by new atomic code, or converted to UPF format
     Using radial grid of  889 points,  6 beta functions with: 
                l(1) =   0
                l(2) =   0
                l(3) =   1
                l(4) =   1
                l(5) =   2
                l(6) =   2
     Q(r) pseudized with  6 coefficients,  rinner =    1.400   1.400   1.400
                                                       1.400   1.400

     PseudoPot. # 4 for Se read from file:
     ./se_pbe_v1.uspp.F.UPF
     MD5 check sum: 1b3568f3a8ae88f9a2a0ad0698632c85
     Pseudo is Ultrasoft + core correction, Zval =  6.0
     Generated by new atomic code, or converted to UPF format
     Using radial grid of  877 points,  6 beta functions with: 
                l(1) =   0
                l(2) =   0
                l(3) =   1
                l(4) =   1
                l(5) =   2
                l(6) =   2
     Q(r) pseudized with  8 coefficients,  rinner =    1.300   1.300   1.300
                                                       1.300   1.300

     atomic species   valence    mass     pseudopotential
     P                 5.00    30.97400     P ( 1.00)
     Cu               19.00    63.54600     Cu( 1.00)
     In               13.00   114.81800     In( 1.00)
     Se                6.00    78.97100     Se( 1.00)

     No symmetry found



   Cartesian axes

     site n.     atom                  positions (alat units)
         1        Cu     tau(   1) = (   0.4999407   0.2887094   0.4469312  )
         2        Cu     tau(   2) = (   0.0000593   0.5773160   1.4954711  )
         3        In     tau(   3) = (   0.9999624   0.0000217   0.5550974  )
         4        In     tau(   4) = (  -0.4999624   0.8660037   1.5393053  )
         5        P      tau(   5) = (  -0.0000153   0.5773583   0.3403420  )
         6        P      tau(   6) = (  -0.0000146   0.5773595   0.7075949  )
         7        P      tau(   7) = (   0.5000153   0.2886671   1.7545712  )
         8        P      tau(   8) = (   0.5000146   0.2886659   1.3858701  )
         9        Se     tau(   9) = (   0.8210490   0.2948570   0.2233194  )
        10        Se     tau(  10) = (   0.3341170   0.5636510   0.2851344  )
        11        Se     tau(  11) = (   0.3447906   0.0075501   0.2847982  )
        12        Se     tau(  12) = (   0.6551709   0.0075477   0.8029884  )
        13        Se     tau(  13) = (   0.1789224   0.2948461   0.8128906  )
        14        Se     tau(  14) = (   0.6658567   0.5636530   0.7832828  )
        15        Se     tau(  15) = (  -0.3210490   0.5711684   1.8527214  )
        16        Se     tau(  16) = (   0.1658830   0.3023744   1.8136353  )
        17        Se     tau(  17) = (   0.1552094   0.8584753   1.8553875  )
        18        Se     tau(  18) = (  -0.1551709   0.8584777   1.3346814  )
        19        Se     tau(  19) = (   0.3210776   0.5711793   1.2592364  )
        20        Se     tau(  20) = (  -0.1658567   0.3023724   1.3283277  )

     -------------------------------------------------
     Parameters for Dispersion (Grimme-D2) Correction:
     -------------------------------------------------
       atom      VdW radius       C_6     

        P          3.222        271.980
        Cu         2.952        374.666
        In         3.160       1294.678
        Se         3.347        438.498

     number of k points=   324  Gaussian smearing, width (Ry)=  0.0200

     Number of k-points >= 100: set verbosity='high' to print them.

     Dense  grid:   307175 G-vectors     FFT dimensions: (  72,  72, 144)

     Smooth grid:   108599 G-vectors     FFT dimensions: (  50,  50, 108)

     Estimated max dynamical RAM per process >      71.90 MB

     Estimated total dynamical RAM >       8.77 GB

     Initial potential from superposition of free atoms

     starting charge     150.9985, renormalised to     156.0000
     Starting wfcs are  108 randomized atomic wfcs

     total cpu time spent up to now is        3.6 secs

     per-process dynamical memory:    91.0 Mb

     Self-consistent Calculation

     iteration #  1     ecut=    40.00 Ry     beta= 0.12
     Davidson diagonalization with overlap
     ethr =  1.00E-02,  avg # of iterations =  3.0

     total cpu time spent up to now is       13.5 secs

     total energy              =   -1660.46366257 Ry
     estimated scf accuracy    <       2.19212559 Ry

     iteration #  2     ecut=    40.00 Ry     beta= 0.12
     Davidson diagonalization with overlap
     ethr =  1.41E-03,  avg # of iterations =  2.0

     total cpu time spent up to now is       21.2 secs

     total energy              =   -1660.28854420 Ry
     estimated scf accuracy    <       1.17350969 Ry

     iteration #  3     ecut=    40.00 Ry     beta= 0.12
     Davidson diagonalization with overlap
     ethr =  7.52E-04,  avg # of iterations =  2.2

     total cpu time spent up to now is       28.8 secs

     total energy              =   -1660.21981493 Ry
     estimated scf accuracy    <       0.34445544 Ry

     iteration #  4     ecut=    40.00 Ry     beta= 0.12
     Davidson diagonalization with overlap
     ethr =  2.21E-04,  avg # of iterations = 10.1

     total cpu time spent up to now is       45.4 secs

     total energy              =   -1660.25117636 Ry
     estimated scf accuracy    <       0.09290483 Ry

     iteration #  5     ecut=    40.00 Ry     beta= 0.12
     Davidson diagonalization with overlap
     ethr =  5.96E-05,  avg # of iterations =  3.6

     total cpu time spent up to now is       55.0 secs

     total energy              =   -1660.25119610 Ry
     estimated scf accuracy    <       0.08312542 Ry

     iteration #  6     ecut=    40.00 Ry     beta= 0.12
     Davidson diagonalization with overlap
     ethr =  5.33E-05,  avg # of iterations =  2.3

     total cpu time spent up to now is       62.9 secs

     total energy              =   -1660.26354569 Ry
     estimated scf accuracy    <       0.01682973 Ry

     iteration #  7     ecut=    40.00 Ry     beta= 0.12
     Davidson diagonalization with overlap
     ethr =  1.08E-05,  avg # of iterations =  6.2

     total cpu time spent up to now is       75.3 secs

     total energy              =   -1660.26293084 Ry
     estimated scf accuracy    <       0.00534498 Ry

     iteration #  8     ecut=    40.00 Ry     beta= 0.12
     Davidson diagonalization with overlap
     c_bands:  2 eigenvalues not converged
     ethr =  3.43E-06,  avg # of iterations =  5.8

     total cpu time spent up to now is       88.4 secs

     total energy              =   -1660.26252868 Ry
     estimated scf accuracy    <       0.01221391 Ry

     iteration #  9     ecut=    40.00 Ry     beta= 0.12
     Davidson diagonalization with overlap
     ethr =  3.43E-06,  avg # of iterations =  3.2

     total cpu time spent up to now is       97.4 secs

     total energy              =   -1660.26429971 Ry
     estimated scf accuracy    <       0.00048531 Ry

     iteration # 10     ecut=    40.00 Ry     beta= 0.12
     Davidson diagonalization with overlap
     ethr =  3.11E-07,  avg # of iterations =  4.8

     total cpu time spent up to now is      107.4 secs

     total energy              =   -1660.26438144 Ry
     estimated scf accuracy    <       0.00015332 Ry

     iteration # 11     ecut=    40.00 Ry     beta= 0.12
     Davidson diagonalization with overlap
     ethr =  9.83E-08,  avg # of iterations =  5.4

     total cpu time spent up to now is      119.0 secs

     total energy              =   -1660.26443761 Ry
     estimated scf accuracy    <       0.00002732 Ry

     iteration # 12     ecut=    40.00 Ry     beta= 0.12
     Davidson diagonalization with overlap
     ethr =  1.75E-08,  avg # of iterations =  3.1

     total cpu time spent up to now is      130.1 secs

     total energy              =   -1660.26445163 Ry
     estimated scf accuracy    <       0.00000595 Ry

     iteration # 13     ecut=    40.00 Ry     beta= 0.12
     Davidson diagonalization with overlap
     ethr =  3.81E-09,  avg # of iterations =  3.8

     total cpu time spent up to now is      140.9 secs

     total energy              =   -1660.26445878 Ry
     estimated scf accuracy    <       0.00000503 Ry

     iteration # 14     ecut=    40.00 Ry     beta= 0.12
     Davidson diagonalization with overlap
     ethr =  3.22E-09,  avg # of iterations =  1.2

     total cpu time spent up to now is      147.3 secs

     total energy              =   -1660.26446270 Ry
     estimated scf accuracy    <       0.00000276 Ry

     iteration # 15     ecut=    40.00 Ry     beta= 0.12
     Davidson diagonalization with overlap
     ethr =  1.77E-09,  avg # of iterations =  3.5

     total cpu time spent up to now is      157.0 secs

     End of self-consistent calculation

     Number of k-points >= 100: set verbosity='high' to print the bands.

     the Fermi energy is     6.7971 ev

!    total energy              =   -1660.26447856 Ry
     estimated scf accuracy    <       0.00000021 Ry
     smearing contrib. (-TS)   =      -0.00106900 Ry
     internal energy E=F+TS    =   -1660.26340955 Ry

     The total energy is F=E-TS. E is the sum of the following terms:
     one-electron contribution =   -1108.74734349 Ry
     hartree contribution      =     630.11626714 Ry
     xc contribution           =    -533.66136602 Ry
     ewald contribution        =    -647.70870765 Ry
     Dispersion Correction     =      -0.26225953 Ry

     convergence has been achieved in  15 iterations

     Writing all to output data dir ./test.save/ :
     XML data file, charge density, pseudopotentials, collected wavefunctions
 
     init_run     :      3.14s CPU      3.23s WALL (       1 calls)
     electrons    :    151.77s CPU    153.40s WALL (       1 calls)

     Called by init_run:
     wfcinit      :      2.99s CPU      3.06s WALL (       1 calls)
     potinit      :      0.03s CPU      0.03s WALL (       1 calls)
     hinit0       :      0.03s CPU      0.04s WALL (       1 calls)

     Called by electrons:
     c_bands      :    138.14s CPU    139.43s WALL (      15 calls)
     sum_band     :     13.14s CPU     13.40s WALL (      15 calls)
     v_of_rho     :      0.13s CPU      0.15s WALL (      16 calls)
     newd         :      0.29s CPU      0.31s WALL (      16 calls)
     mix_rho      :      0.02s CPU      0.02s WALL (      15 calls)
     energy_londo :      0.03s CPU      0.03s WALL (       1 calls)

     Called by c_bands:
     init_us_2    :      1.96s CPU      2.01s WALL (    2511 calls)
     cegterg      :    114.57s CPU    115.69s WALL (    1215 calls)

     Called by *egterg:
     cdiaghg      :     40.51s CPU     40.66s WALL (    6169 calls)
     h_psi        :     54.46s CPU     55.32s WALL (    6250 calls)
     s_psi        :      6.86s CPU      6.91s WALL (    6250 calls)
     g_psi        :      0.25s CPU      0.25s WALL (    4954 calls)

     Called by h_psi:
     h_psi:calbec :      7.04s CPU      7.13s WALL (    6250 calls)
     vloc_psi     :     40.11s CPU     40.83s WALL (    6250 calls)
     add_vuspsi   :      6.91s CPU      6.97s WALL (    6250 calls)

     General routines
     calbec       :      9.42s CPU      9.53s WALL (    7465 calls)
     fft          :      0.06s CPU      0.07s WALL (     206 calls)
     ffts         :      0.00s CPU      0.01s WALL (      31 calls)
     fftw         :     41.26s CPU     42.00s WALL (  702434 calls)
     interpolate  :      0.00s CPU      0.01s WALL (      16 calls)
 
     Parallel routines
 
     PWSCF        :    156.41s CPU    171.35s WALL

 
   This run was terminated on:   8:32:50   9May2025            

=------------------------------------------------------------------------------=
   JOB DONE.
=------------------------------------------------------------------------------=
