
     Program PWSCF v.7.3.1 starts on  9May2025 at 14:58:46 

     This program is part of the open-source Quantum ESPRESSO suite
     for quantum simulation of materials; please cite
         "P. Giannozzi et al., J. Phys.:Condens. Matter 21 395502 (2009);
         "P. Giannozzi et al., J. Phys.:Condens. Matter 29 465901 (2017);
         "P. Giannozzi et al., J. Chem. Phys. 152 154105 (2020);
          URL http://www.quantum-espresso.org", 
     in publications or presentations arising from this work. More details at
     http://www.quantum-espresso.org/quote

     Parallel version (MPI & OpenMP), running on     128 processor cores
     Number of MPI processes:               128
     Threads/MPI process:                     1

     MPI processes distributed on     2 nodes
     1021506 MiB available memory on the printing compute node when the environment starts
 
     Waiting for input...
     Reading input from standard input
Warning: card &CELL ignored
Warning: card   PRESS = 0.0, ignored
Warning: card / ignored

     Current dimensions of program PWSCF are:
     Max number of different atomic species (ntypx) = 10
     Max number of k-points (npk) =  40000
     Max angular momentum in pseudopotentials (lmaxx) =  4

     IMPORTANT: XC functional enforced from input :
     Exchange-correlation= PBE
                           (   1   4   3   4   0   0   0)
     Any further DFT definition will be discarded
     Please, verify this is what you really want

 
     K-points division:     npool     =       4
     R & G space division:  proc/nbgrp/npool/nimage =      32
     Subspace diagonalization in iterative solution of the eigenvalue problem:
     a serial algorithm will be used

 
     Parallelization info
     --------------------
     sticks:   dense  smooth     PW     G-vecs:    dense   smooth      PW
     Min         100      50     14                 9594     3390     516
     Max         101      51     15                 9607     3397     525
     Sum        3217    1615    451               307175   108599   16633
 
     Using Slab Decomposition
 


     bravais-lattice index     =            4
     lattice parameter (alat)  =      12.0717  a.u.
     unit-cell volume          =    3177.3402 (a.u.)^3
     number of atoms/cell      =           20
     number of atomic types    =            4
     number of electrons       =       156.00
     number of Kohn-Sham states=           94
     kinetic-energy cutoff     =      40.0000  Ry
     charge density cutoff     =     320.0000  Ry
     scf convergence threshold =      1.0E-06
     mixing beta               =       0.1200
     number of iterations used =            8  plain     mixing
     Exchange-correlation= PBE
                           (   1   4   3   4   0   0   0)

     celldm(1)=  12.071670  celldm(2)=   0.000000  celldm(3)=   2.085600
     celldm(4)=   0.000000  celldm(5)=   0.000000  celldm(6)=   0.000000

     crystal axes: (cart. coord. in units of alat)
               a(1) = (   1.000000   0.000000   0.000000 )  
               a(2) = (  -0.500000   0.866025   0.000000 )  
               a(3) = (   0.000000   0.000000   2.085600 )  

     reciprocal axes: (cart. coord. in units 2 pi/alat)
               b(1) = (  1.000000  0.577350  0.000000 )  
               b(2) = (  0.000000  1.154701  0.000000 )  
               b(3) = (  0.000000  0.000000  0.479478 )  


     PseudoPot. # 1 for P  read from file:
     ./p_pbe_v1.5.uspp.F.UPF
     MD5 check sum: eb82b2c351da08c5f5f8709277dc7ee5
     Pseudo is Ultrasoft + core correction, Zval =  5.0
     Generated by new atomic code, or converted to UPF format
     Using radial grid of  903 points,  6 beta functions with: 
                l(1) =   0
                l(2) =   0
                l(3) =   1
                l(4) =   1
                l(5) =   2
                l(6) =   2
     Q(r) pseudized with  8 coefficients,  rinner =    1.300   1.300   1.300
                                                       1.300   1.300

     PseudoPot. # 2 for Cu read from file:
     ./cu_pbe_v1.2.uspp.F.UPF
     MD5 check sum: 6e991ff952a84172a2a52a1c1e996048
     Pseudo is Ultrasoft + core correction, Zval = 19.0
     Generated by new atomic code, or converted to UPF format
     Using radial grid of  867 points,  6 beta functions with: 
                l(1) =   0
                l(2) =   0
                l(3) =   1
                l(4) =   1
                l(5) =   2
                l(6) =   2
     Q(r) pseudized with  8 coefficients,  rinner =    1.150   1.150   1.150
                                                       1.150   1.150

     PseudoPot. # 3 for In read from file:
     ./in_pbe_v1.4.uspp.F.UPF
     MD5 check sum: 90777abd96fbb83f2e67db2a40c566b9
     Pseudo is Ultrasoft + core correction, Zval = 13.0
     Generated by new atomic code, or converted to UPF format
     Using radial grid of  889 points,  6 beta functions with: 
                l(1) =   0
                l(2) =   0
                l(3) =   1
                l(4) =   1
                l(5) =   2
                l(6) =   2
     Q(r) pseudized with  6 coefficients,  rinner =    1.400   1.400   1.400
                                                       1.400   1.400

     PseudoPot. # 4 for Se read from file:
     ./se_pbe_v1.uspp.F.UPF
     MD5 check sum: 1b3568f3a8ae88f9a2a0ad0698632c85
     Pseudo is Ultrasoft + core correction, Zval =  6.0
     Generated by new atomic code, or converted to UPF format
     Using radial grid of  877 points,  6 beta functions with: 
                l(1) =   0
                l(2) =   0
                l(3) =   1
                l(4) =   1
                l(5) =   2
                l(6) =   2
     Q(r) pseudized with  8 coefficients,  rinner =    1.300   1.300   1.300
                                                       1.300   1.300

     atomic species   valence    mass     pseudopotential
     P                 5.00    30.97400     P ( 1.00)
     Cu               19.00    63.54600     Cu( 1.00)
     In               13.00   114.81800     In( 1.00)
     Se                6.00    78.97100     Se( 1.00)

     No symmetry found



   Cartesian axes

     site n.     atom                  positions (alat units)
         1        Cu     tau(   1) = (   0.4999407   0.2887094   0.6375515  )
         2        Cu     tau(   2) = (   0.0000593   0.5773160   1.4391715  )
         3        In     tau(   3) = (   0.9999624   0.0000217   0.5155939  )
         4        In     tau(   4) = (  -0.4999624   0.8660037   1.5662294  )
         5        P      tau(   5) = (  -0.0000153   0.5773583   0.3430336  )
         6        P      tau(   6) = (  -0.0000146   0.5773595   0.6822297  )
         7        P      tau(   7) = (   0.5000153   0.2886671   1.7476190  )
         8        P      tau(   8) = (   0.5000146   0.2886659   1.3947262  )
         9        Se     tau(   9) = (   0.8210490   0.2948570   0.2347950  )
        10        Se     tau(  10) = (   0.3341170   0.5636510   0.2385466  )
        11        Se     tau(  11) = (   0.3447906   0.0075501   0.2513592  )
        12        Se     tau(  12) = (   0.6551709   0.0075477   0.8062755  )
        13        Se     tau(  13) = (   0.1789224   0.2948461   0.8147995  )
        14        Se     tau(  14) = (   0.6658567   0.5636530   0.7864813  )
        15        Se     tau(  15) = (  -0.3210490   0.5711684   1.8127928  )
        16        Se     tau(  16) = (   0.1658830   0.3023744   1.8095204  )
        17        Se     tau(  17) = (   0.1552094   0.8584753   1.8698776  )
        18        Se     tau(  18) = (  -0.1551709   0.8584777   1.2787063  )
        19        Se     tau(  19) = (   0.3210776   0.5711793   1.2909852  )
        20        Se     tau(  20) = (  -0.1658567   0.3023724   1.3144033  )

     -------------------------------------------------
     Parameters for Dispersion (Grimme-D2) Correction:
     -------------------------------------------------
       atom      VdW radius       C_6     

        P          3.222        271.980
        Cu         2.952        374.666
        In         3.160       1294.678
        Se         3.347        438.498

     number of k points=   324  Gaussian smearing, width (Ry)=  0.0200

     Number of k-points >= 100: set verbosity='high' to print them.

     Dense  grid:   307175 G-vectors     FFT dimensions: (  72,  72, 144)

     Smooth grid:   108599 G-vectors     FFT dimensions: (  50,  50, 108)

     Estimated max dynamical RAM per process >      71.90 MB

     Estimated total dynamical RAM >       8.77 GB

     Initial potential from superposition of free atoms

     starting charge     150.9985, renormalised to     156.0000
     Starting wfcs are  108 randomized atomic wfcs

     total cpu time spent up to now is        3.4 secs

     per-process dynamical memory:    91.0 Mb

     Self-consistent Calculation

     iteration #  1     ecut=    40.00 Ry     beta= 0.12
     Davidson diagonalization with overlap
     ethr =  1.00E-02,  avg # of iterations =  2.4

     total cpu time spent up to now is       13.1 secs

     total energy              =   -1660.50698076 Ry
     estimated scf accuracy    <       2.24555269 Ry

     iteration #  2     ecut=    40.00 Ry     beta= 0.12
     Davidson diagonalization with overlap
     ethr =  1.44E-03,  avg # of iterations =  2.0

     total cpu time spent up to now is       20.8 secs

     total energy              =   -1660.34235832 Ry
     estimated scf accuracy    <       1.21578244 Ry

     iteration #  3     ecut=    40.00 Ry     beta= 0.12
     Davidson diagonalization with overlap
     ethr =  7.79E-04,  avg # of iterations =  2.3

     total cpu time spent up to now is       28.4 secs

     total energy              =   -1660.25168009 Ry
     estimated scf accuracy    <       0.38716875 Ry

     iteration #  4     ecut=    40.00 Ry     beta= 0.12
     Davidson diagonalization with overlap
     ethr =  2.48E-04,  avg # of iterations = 10.2

     total cpu time spent up to now is       44.8 secs

     total energy              =   -1660.28256483 Ry
     estimated scf accuracy    <       0.10692566 Ry

     iteration #  5     ecut=    40.00 Ry     beta= 0.12
     Davidson diagonalization with overlap
     ethr =  6.85E-05,  avg # of iterations =  4.2

     total cpu time spent up to now is       55.0 secs

     total energy              =   -1660.28219988 Ry
     estimated scf accuracy    <       0.16549097 Ry

     iteration #  6     ecut=    40.00 Ry     beta= 0.12
     Davidson diagonalization with overlap
     ethr =  6.85E-05,  avg # of iterations =  2.4

     total cpu time spent up to now is       62.9 secs

     total energy              =   -1660.29914024 Ry
     estimated scf accuracy    <       0.01797343 Ry

     iteration #  7     ecut=    40.00 Ry     beta= 0.12
     Davidson diagonalization with overlap
     ethr =  1.15E-05,  avg # of iterations =  6.5

     total cpu time spent up to now is       78.0 secs

     total energy              =   -1660.30011477 Ry
     estimated scf accuracy    <       0.01471967 Ry

     iteration #  8     ecut=    40.00 Ry     beta= 0.12
     Davidson diagonalization with overlap
     ethr =  9.44E-06,  avg # of iterations =  2.0

     total cpu time spent up to now is       84.9 secs

     total energy              =   -1660.30030554 Ry
     estimated scf accuracy    <       0.00332374 Ry

     iteration #  9     ecut=    40.00 Ry     beta= 0.12
     Davidson diagonalization with overlap
     c_bands:  1 eigenvalues not converged
     ethr =  2.13E-06,  avg # of iterations =  7.9

     total cpu time spent up to now is      101.4 secs

     total energy              =   -1660.30043694 Ry
     estimated scf accuracy    <       0.00197764 Ry

     iteration # 10     ecut=    40.00 Ry     beta= 0.12
     Davidson diagonalization with overlap
     ethr =  1.27E-06,  avg # of iterations =  4.0

     total cpu time spent up to now is      110.9 secs

     total energy              =   -1660.30084883 Ry
     estimated scf accuracy    <       0.00181402 Ry

     iteration # 11     ecut=    40.00 Ry     beta= 0.12
     Davidson diagonalization with overlap
     ethr =  1.16E-06,  avg # of iterations =  2.0

     total cpu time spent up to now is      118.1 secs

     total energy              =   -1660.30107108 Ry
     estimated scf accuracy    <       0.00005690 Ry

     iteration # 12     ecut=    40.00 Ry     beta= 0.12
     Davidson diagonalization with overlap
     ethr =  3.65E-08,  avg # of iterations =  7.6

     total cpu time spent up to now is      136.1 secs

     total energy              =   -1660.30113107 Ry
     estimated scf accuracy    <       0.00011064 Ry

     iteration # 13     ecut=    40.00 Ry     beta= 0.12
     Davidson diagonalization with overlap
     ethr =  3.65E-08,  avg # of iterations =  3.0

     total cpu time spent up to now is      144.6 secs

     total energy              =   -1660.30115336 Ry
     estimated scf accuracy    <       0.00000602 Ry

     iteration # 14     ecut=    40.00 Ry     beta= 0.12
     Davidson diagonalization with overlap
     ethr =  3.86E-09,  avg # of iterations =  4.1

     total cpu time spent up to now is      155.9 secs

     total energy              =   -1660.30115829 Ry
     estimated scf accuracy    <       0.00000792 Ry

     iteration # 15     ecut=    40.00 Ry     beta= 0.12
     Davidson diagonalization with overlap
     ethr =  3.86E-09,  avg # of iterations =  3.3

     total cpu time spent up to now is      164.8 secs

     total energy              =   -1660.30116312 Ry
     estimated scf accuracy    <       0.00000276 Ry

     iteration # 16     ecut=    40.00 Ry     beta= 0.12
     Davidson diagonalization with overlap
     ethr =  1.77E-09,  avg # of iterations =  2.0

     total cpu time spent up to now is      172.2 secs

     End of self-consistent calculation

     Number of k-points >= 100: set verbosity='high' to print the bands.

     the Fermi energy is     6.8083 ev

!    total energy              =   -1660.30117535 Ry
     estimated scf accuracy    <       0.00000010 Ry
     smearing contrib. (-TS)   =      -0.00048180 Ry
     internal energy E=F+TS    =   -1660.30069355 Ry

     The total energy is F=E-TS. E is the sum of the following terms:
     one-electron contribution =   -1118.72304988 Ry
     hartree contribution      =     634.84493771 Ry
     xc contribution           =    -533.55955247 Ry
     ewald contribution        =    -642.59789267 Ry
     Dispersion Correction     =      -0.26513626 Ry

     convergence has been achieved in  16 iterations

     Writing all to output data dir ./test.save/ :
     XML data file, charge density, pseudopotentials, collected wavefunctions
 
     init_run     :      3.00s CPU      3.10s WALL (       1 calls)
     electrons    :    167.01s CPU    168.86s WALL (       1 calls)

     Called by init_run:
     wfcinit      :      2.85s CPU      2.92s WALL (       1 calls)
     potinit      :      0.03s CPU      0.03s WALL (       1 calls)
     hinit0       :      0.03s CPU      0.04s WALL (       1 calls)

     Called by electrons:
     c_bands      :    152.50s CPU    153.98s WALL (      16 calls)
     sum_band     :     14.01s CPU     14.29s WALL (      16 calls)
     v_of_rho     :      0.14s CPU      0.15s WALL (      17 calls)
     newd         :      0.30s CPU      0.32s WALL (      17 calls)
     mix_rho      :      0.02s CPU      0.03s WALL (      16 calls)
     energy_londo :      0.03s CPU      0.03s WALL (       1 calls)

     Called by c_bands:
     init_us_2    :      2.07s CPU      2.13s WALL (    2673 calls)
     cegterg      :    128.64s CPU    129.96s WALL (    1296 calls)

     Called by *egterg:
     cdiaghg      :     45.40s CPU     45.56s WALL (    6669 calls)
     h_psi        :     60.55s CPU     61.61s WALL (    6750 calls)
     s_psi        :      7.60s CPU      7.66s WALL (    6750 calls)
     g_psi        :      0.29s CPU      0.30s WALL (    5373 calls)

     Called by h_psi:
     h_psi:calbec :      7.76s CPU      7.85s WALL (    6750 calls)
     vloc_psi     :     44.69s CPU     45.59s WALL (    6750 calls)
     add_vuspsi   :      7.66s CPU      7.73s WALL (    6750 calls)

     General routines
     calbec       :     10.27s CPU     10.40s WALL (    8046 calls)
     fft          :      0.06s CPU      0.07s WALL (     219 calls)
     ffts         :      0.00s CPU      0.01s WALL (      33 calls)
     fftw         :     45.62s CPU     46.52s WALL (  781860 calls)
     interpolate  :      0.01s CPU      0.01s WALL (      17 calls)
 
     Parallel routines
 
     PWSCF        :    171.59s CPU    186.89s WALL

 
   This run was terminated on:  15: 1:53   9May2025            

=------------------------------------------------------------------------------=
   JOB DONE.
=------------------------------------------------------------------------------=
