
     Program PWSCF v.7.3.1 starts on 23Apr2025 at 22:52:49 

     This program is part of the open-source Quantum ESPRESSO suite
     for quantum simulation of materials; please cite
         "P. Giannozzi et al., J. Phys.:Condens. Matter 21 395502 (2009);
         "P. Giannozzi et al., J. Phys.:Condens. Matter 29 465901 (2017);
         "P. Giannozzi et al., J. Chem. Phys. 152 154105 (2020);
          URL http://www.quantum-espresso.org", 
     in publications or presentations arising from this work. More details at
     http://www.quantum-espresso.org/quote

     Parallel version (MPI & OpenMP), running on     128 processor cores
     Number of MPI processes:               128
     Threads/MPI process:                     1

     MPI processes distributed on     2 nodes
     1002786 MiB available memory on the printing compute node when the environment starts
 
     Waiting for input...
     Reading input from standard input
Warning: card &CELL ignored
Warning: card   PRESS = 0.0, ignored
Warning: card / ignored

     Current dimensions of program PWSCF are:
     Max number of different atomic species (ntypx) = 10
     Max number of k-points (npk) =  40000
     Max angular momentum in pseudopotentials (lmaxx) =  4

     IMPORTANT: XC functional enforced from input :
     Exchange-correlation= PBE
                           (   1   4   3   4   0   0   0)
     Any further DFT definition will be discarded
     Please, verify this is what you really want

 
     K-points division:     npool     =       4
     R & G space division:  proc/nbgrp/npool/nimage =      32
     Subspace diagonalization in iterative solution of the eigenvalue problem:
     a serial algorithm will be used

 
     Parallelization info
     --------------------
     sticks:   dense  smooth     PW     G-vecs:    dense   smooth      PW
     Min         100      50     14                 9624     3400     517
     Max         101      51     16                 9637     3407     525
     Sum        3217    1615    463               308159   108923   16645
 
     Using Slab Decomposition
 


     bravais-lattice index     =            4
     lattice parameter (alat)  =      12.0809  a.u.
     unit-cell volume          =    3186.3136 (a.u.)^3
     number of atoms/cell      =           20
     number of atomic types    =            4
     number of electrons       =       156.00
     number of Kohn-Sham states=           94
     kinetic-energy cutoff     =      40.0000  Ry
     charge density cutoff     =     320.0000  Ry
     scf convergence threshold =      1.0E-06
     mixing beta               =       0.1200
     number of iterations used =            8  plain     mixing
     Exchange-correlation= PBE
                           (   1   4   3   4   0   0   0)

     celldm(1)=  12.080900  celldm(2)=   0.000000  celldm(3)=   2.086700
     celldm(4)=   0.000000  celldm(5)=   0.000000  celldm(6)=   0.000000

     crystal axes: (cart. coord. in units of alat)
               a(1) = (   1.000000   0.000000   0.000000 )  
               a(2) = (  -0.500000   0.866025   0.000000 )  
               a(3) = (   0.000000   0.000000   2.086700 )  

     reciprocal axes: (cart. coord. in units 2 pi/alat)
               b(1) = (  1.000000  0.577350  0.000000 )  
               b(2) = (  0.000000  1.154701  0.000000 )  
               b(3) = (  0.000000  0.000000  0.479226 )  


     PseudoPot. # 1 for P  read from file:
     ./p_pbe_v1.5.uspp.F.UPF
     MD5 check sum: eb82b2c351da08c5f5f8709277dc7ee5
     Pseudo is Ultrasoft + core correction, Zval =  5.0
     Generated by new atomic code, or converted to UPF format
     Using radial grid of  903 points,  6 beta functions with: 
                l(1) =   0
                l(2) =   0
                l(3) =   1
                l(4) =   1
                l(5) =   2
                l(6) =   2
     Q(r) pseudized with  8 coefficients,  rinner =    1.300   1.300   1.300
                                                       1.300   1.300

     PseudoPot. # 2 for Cu read from file:
     ./cu_pbe_v1.2.uspp.F.UPF
     MD5 check sum: 6e991ff952a84172a2a52a1c1e996048
     Pseudo is Ultrasoft + core correction, Zval = 19.0
     Generated by new atomic code, or converted to UPF format
     Using radial grid of  867 points,  6 beta functions with: 
                l(1) =   0
                l(2) =   0
                l(3) =   1
                l(4) =   1
                l(5) =   2
                l(6) =   2
     Q(r) pseudized with  8 coefficients,  rinner =    1.150   1.150   1.150
                                                       1.150   1.150

     PseudoPot. # 3 for In read from file:
     ./in_pbe_v1.4.uspp.F.UPF
     MD5 check sum: 90777abd96fbb83f2e67db2a40c566b9
     Pseudo is Ultrasoft + core correction, Zval = 13.0
     Generated by new atomic code, or converted to UPF format
     Using radial grid of  889 points,  6 beta functions with: 
                l(1) =   0
                l(2) =   0
                l(3) =   1
                l(4) =   1
                l(5) =   2
                l(6) =   2
     Q(r) pseudized with  6 coefficients,  rinner =    1.400   1.400   1.400
                                                       1.400   1.400

     PseudoPot. # 4 for Se read from file:
     ./se_pbe_v1.uspp.F.UPF
     MD5 check sum: 1b3568f3a8ae88f9a2a0ad0698632c85
     Pseudo is Ultrasoft + core correction, Zval =  6.0
     Generated by new atomic code, or converted to UPF format
     Using radial grid of  877 points,  6 beta functions with: 
                l(1) =   0
                l(2) =   0
                l(3) =   1
                l(4) =   1
                l(5) =   2
                l(6) =   2
     Q(r) pseudized with  8 coefficients,  rinner =    1.300   1.300   1.300
                                                       1.300   1.300

     atomic species   valence    mass     pseudopotential
     P                 5.00    30.97400     P ( 1.00)
     Cu               19.00    63.54600     Cu( 1.00)
     In               13.00   114.81800     In( 1.00)
     Se                6.00    78.97100     Se( 1.00)

     No symmetry found



   Cartesian axes

     site n.     atom                  positions (alat units)
         1        Cu     tau(   1) = (   0.5000500   0.2886463   0.3994158  )
         2        Cu     tau(   2) = (  -0.0000500   0.5773791   1.4139589  )
         3        In     tau(   3) = (   0.0000000   0.0000000   0.5455746  )
         4        In     tau(   4) = (   0.0000000   0.0000000   1.5702978  )
         5        P      tau(   5) = (  -0.0000500   0.5773791   0.3301823  )
         6        P      tau(   6) = (  -0.0000500   0.5773791   0.7085875  )
         7        P      tau(   7) = (   0.5000500   0.2886463  -0.3343082  )
         8        P      tau(   8) = (   0.5000500   0.2886463   1.3890048  )
         9        Se     tau(   9) = (  -0.1605500   0.2945352   0.2486824  )
        10        Se     tau(  10) = (  -0.1748000  -0.2863080   0.2842753  )
        11        Se     tau(  11) = (   0.3353500  -0.0082272   0.2771114  )
        12        Se     tau(  12) = (  -0.3353500  -0.0082272   0.7698947  )
        13        Se     tau(  13) = (   0.1605500   0.2945352   0.8090614  )
        14        Se     tau(  14) = (   0.1748000  -0.2863080   0.7995060  )
        15        Se     tau(  15) = (   0.1605500  -0.2945352  -0.2697538  )
        16        Se     tau(  16) = (   0.1748000   0.2863080  -0.2197613  )
        17        Se     tau(  17) = (  -0.3353500   0.0082272  -0.2689452  )
        18        Se     tau(  18) = (   0.3353500   0.0082272   1.2756407  )
        19        Se     tau(  19) = (  -0.1605500  -0.2945352   1.3063257  )
        20        Se     tau(  20) = (  -0.1748000   0.2863080   1.3318613  )

     -------------------------------------------------
     Parameters for Dispersion (Grimme-D2) Correction:
     -------------------------------------------------
       atom      VdW radius       C_6     

        P          3.222        271.980
        Cu         2.952        374.666
        In         3.160       1294.678
        Se         3.347        438.498

     number of k points=   324  Gaussian smearing, width (Ry)=  0.0200

     Number of k-points >= 100: set verbosity='high' to print them.

     Dense  grid:   308159 G-vectors     FFT dimensions: (  72,  72, 144)

     Smooth grid:   108923 G-vectors     FFT dimensions: (  50,  50, 108)

     Estimated max dynamical RAM per process >      72.07 MB

     Estimated total dynamical RAM >       8.79 GB

     Initial potential from superposition of free atoms

     starting charge     150.9985, renormalised to     156.0000
     Starting wfcs are  108 randomized atomic wfcs

     total cpu time spent up to now is        3.4 secs

     per-process dynamical memory:    91.0 Mb

     Self-consistent Calculation

     iteration #  1     ecut=    40.00 Ry     beta= 0.12
     Davidson diagonalization with overlap
     ethr =  1.00E-02,  avg # of iterations =  3.0

     total cpu time spent up to now is       13.4 secs

     total energy              =   -1660.43792684 Ry
     estimated scf accuracy    <       1.97295482 Ry

     iteration #  2     ecut=    40.00 Ry     beta= 0.12
     Davidson diagonalization with overlap
     ethr =  1.26E-03,  avg # of iterations =  2.0

     total cpu time spent up to now is       21.1 secs

     total energy              =   -1660.20855997 Ry
     estimated scf accuracy    <       1.12091524 Ry

     iteration #  3     ecut=    40.00 Ry     beta= 0.12
     Davidson diagonalization with overlap
     ethr =  7.19E-04,  avg # of iterations =  2.4

     total cpu time spent up to now is       29.0 secs

     total energy              =   -1660.21995930 Ry
     estimated scf accuracy    <       0.23719964 Ry

     iteration #  4     ecut=    40.00 Ry     beta= 0.12
     Davidson diagonalization with overlap
     ethr =  1.52E-04,  avg # of iterations =  9.9

     total cpu time spent up to now is       45.4 secs

     total energy              =   -1660.22488187 Ry
     estimated scf accuracy    <       0.09480789 Ry

     iteration #  5     ecut=    40.00 Ry     beta= 0.12
     Davidson diagonalization with overlap
     ethr =  6.08E-05,  avg # of iterations =  4.2

     total cpu time spent up to now is       55.9 secs

     total energy              =   -1660.22756216 Ry
     estimated scf accuracy    <       0.10100459 Ry

     iteration #  6     ecut=    40.00 Ry     beta= 0.12
     Davidson diagonalization with overlap
     ethr =  6.08E-05,  avg # of iterations =  2.1

     total cpu time spent up to now is       63.4 secs

     total energy              =   -1660.24089485 Ry
     estimated scf accuracy    <       0.01265878 Ry

     iteration #  7     ecut=    40.00 Ry     beta= 0.12
     Davidson diagonalization with overlap
     c_bands:  1 eigenvalues not converged
     ethr =  8.11E-06,  avg # of iterations =  5.6

     total cpu time spent up to now is       77.7 secs

     total energy              =   -1660.23839962 Ry
     estimated scf accuracy    <       0.01928110 Ry

     iteration #  8     ecut=    40.00 Ry     beta= 0.12
     Davidson diagonalization with overlap
     ethr =  8.11E-06,  avg # of iterations =  3.0

     total cpu time spent up to now is       86.4 secs

     total energy              =   -1660.24122043 Ry
     estimated scf accuracy    <       0.00218179 Ry

     iteration #  9     ecut=    40.00 Ry     beta= 0.12
     Davidson diagonalization with overlap
     ethr =  1.40E-06,  avg # of iterations =  6.4

     total cpu time spent up to now is       98.9 secs

     total energy              =   -1660.24126798 Ry
     estimated scf accuracy    <       0.00056003 Ry

     iteration # 10     ecut=    40.00 Ry     beta= 0.12
     Davidson diagonalization with overlap
     ethr =  3.59E-07,  avg # of iterations =  5.1

     total cpu time spent up to now is      110.9 secs

     total energy              =   -1660.24125508 Ry
     estimated scf accuracy    <       0.00190808 Ry

     iteration # 11     ecut=    40.00 Ry     beta= 0.12
     Davidson diagonalization with overlap
     ethr =  3.59E-07,  avg # of iterations =  4.0

     total cpu time spent up to now is      120.7 secs

     total energy              =   -1660.24156019 Ry
     estimated scf accuracy    <       0.00008297 Ry

     iteration # 12     ecut=    40.00 Ry     beta= 0.12
     Davidson diagonalization with overlap
     ethr =  5.32E-08,  avg # of iterations =  4.3

     total cpu time spent up to now is      131.5 secs

     total energy              =   -1660.24158976 Ry
     estimated scf accuracy    <       0.00006138 Ry

     iteration # 13     ecut=    40.00 Ry     beta= 0.12
     Davidson diagonalization with overlap
     ethr =  3.93E-08,  avg # of iterations =  2.0

     total cpu time spent up to now is      139.1 secs

     total energy              =   -1660.24160751 Ry
     estimated scf accuracy    <       0.00000338 Ry

     iteration # 14     ecut=    40.00 Ry     beta= 0.12
     Davidson diagonalization with overlap
     ethr =  2.17E-09,  avg # of iterations =  6.0

     total cpu time spent up to now is      154.1 secs

     total energy              =   -1660.24161629 Ry
     estimated scf accuracy    <       0.00000140 Ry

     iteration # 15     ecut=    40.00 Ry     beta= 0.12
     Davidson diagonalization with overlap
     ethr =  9.00E-10,  avg # of iterations =  2.0

     total cpu time spent up to now is      161.3 secs

     total energy              =   -1660.24161944 Ry
     estimated scf accuracy    <       0.00000193 Ry

     iteration # 16     ecut=    40.00 Ry     beta= 0.12
     Davidson diagonalization with overlap
     ethr =  9.00E-10,  avg # of iterations =  3.0

     total cpu time spent up to now is      169.6 secs

     End of self-consistent calculation

     Number of k-points >= 100: set verbosity='high' to print the bands.

     the Fermi energy is     6.6501 ev

!    total energy              =   -1660.24163222 Ry
     estimated scf accuracy    <       0.00000016 Ry
     smearing contrib. (-TS)   =      -0.00019641 Ry
     internal energy E=F+TS    =   -1660.24143581 Ry

     The total energy is F=E-TS. E is the sum of the following terms:
     one-electron contribution =   -1107.32906996 Ry
     hartree contribution      =     628.68332256 Ry
     xc contribution           =    -534.20444037 Ry
     ewald contribution        =    -647.12739431 Ry
     Dispersion Correction     =      -0.26385372 Ry

     convergence has been achieved in  16 iterations

     Writing all to output data dir ./test.save/ :
     XML data file, charge density, pseudopotentials, collected wavefunctions
 
     init_run     :      3.03s CPU      3.11s WALL (       1 calls)
     electrons    :    164.46s CPU    166.28s WALL (       1 calls)

     Called by init_run:
     wfcinit      :      2.87s CPU      2.94s WALL (       1 calls)
     potinit      :      0.01s CPU      0.02s WALL (       1 calls)
     hinit0       :      0.06s CPU      0.06s WALL (       1 calls)

     Called by electrons:
     c_bands      :    149.97s CPU    151.46s WALL (      16 calls)
     sum_band     :     13.98s CPU     14.23s WALL (      16 calls)
     v_of_rho     :      0.14s CPU      0.15s WALL (      17 calls)
     newd         :      0.31s CPU      0.33s WALL (      17 calls)
     mix_rho      :      0.02s CPU      0.02s WALL (      16 calls)
     energy_londo :      0.03s CPU      0.03s WALL (       1 calls)

     Called by c_bands:
     init_us_2    :      2.11s CPU      2.16s WALL (    2673 calls)
     cegterg      :    130.32s CPU    131.65s WALL (    1296 calls)

     Called by *egterg:
     cdiaghg      :     45.66s CPU     45.82s WALL (    6719 calls)
     h_psi        :     61.76s CPU     62.79s WALL (    6800 calls)
     s_psi        :      7.73s CPU      7.79s WALL (    6800 calls)
     g_psi        :      0.30s CPU      0.30s WALL (    5423 calls)

     Called by h_psi:
     h_psi:calbec :      7.87s CPU      7.97s WALL (    6800 calls)
     vloc_psi     :     45.64s CPU     46.52s WALL (    6800 calls)
     add_vuspsi   :      7.79s CPU      7.86s WALL (    6800 calls)

     General routines
     calbec       :     10.38s CPU     10.50s WALL (    8096 calls)
     fft          :      0.06s CPU      0.07s WALL (     219 calls)
     ffts         :      0.01s CPU      0.01s WALL (      33 calls)
     fftw         :     46.48s CPU     47.35s WALL (  792302 calls)
     interpolate  :      0.01s CPU      0.01s WALL (      17 calls)
 
     Parallel routines
 
     PWSCF        :    168.91s CPU    183.95s WALL

 
   This run was terminated on:  22:55:53  23Apr2025            

=------------------------------------------------------------------------------=
   JOB DONE.
=------------------------------------------------------------------------------=
