
     Program PWSCF v.7.3.1 starts on  9May2025 at  6:38:59 

     This program is part of the open-source Quantum ESPRESSO suite
     for quantum simulation of materials; please cite
         "P. Giannozzi et al., J. Phys.:Condens. Matter 21 395502 (2009);
         "P. Giannozzi et al., J. Phys.:Condens. Matter 29 465901 (2017);
         "P. Giannozzi et al., J. Chem. Phys. 152 154105 (2020);
          URL http://www.quantum-espresso.org", 
     in publications or presentations arising from this work. More details at
     http://www.quantum-espresso.org/quote

     Parallel version (MPI & OpenMP), running on     128 processor cores
     Number of MPI processes:               128
     Threads/MPI process:                     1

     MPI processes distributed on     2 nodes
     1021511 MiB available memory on the printing compute node when the environment starts
 
     Waiting for input...
     Reading input from standard input
Warning: card &CELL ignored
Warning: card   PRESS = 0.0, ignored
Warning: card / ignored

     Current dimensions of program PWSCF are:
     Max number of different atomic species (ntypx) = 10
     Max number of k-points (npk) =  40000
     Max angular momentum in pseudopotentials (lmaxx) =  4

     IMPORTANT: XC functional enforced from input :
     Exchange-correlation= PBE
                           (   1   4   3   4   0   0   0)
     Any further DFT definition will be discarded
     Please, verify this is what you really want

 
     K-points division:     npool     =       4
     R & G space division:  proc/nbgrp/npool/nimage =      32
     Subspace diagonalization in iterative solution of the eigenvalue problem:
     a serial algorithm will be used

 
     Parallelization info
     --------------------
     sticks:   dense  smooth     PW     G-vecs:    dense   smooth      PW
     Min         100      50     14                 9594     3390     516
     Max         101      51     15                 9607     3397     525
     Sum        3217    1615    451               307175   108599   16633
 
     Using Slab Decomposition
 


     bravais-lattice index     =            4
     lattice parameter (alat)  =      12.0717  a.u.
     unit-cell volume          =    3177.3402 (a.u.)^3
     number of atoms/cell      =           20
     number of atomic types    =            4
     number of electrons       =       156.00
     number of Kohn-Sham states=           94
     kinetic-energy cutoff     =      40.0000  Ry
     charge density cutoff     =     320.0000  Ry
     scf convergence threshold =      1.0E-06
     mixing beta               =       0.1200
     number of iterations used =            8  plain     mixing
     Exchange-correlation= PBE
                           (   1   4   3   4   0   0   0)

     celldm(1)=  12.071670  celldm(2)=   0.000000  celldm(3)=   2.085600
     celldm(4)=   0.000000  celldm(5)=   0.000000  celldm(6)=   0.000000

     crystal axes: (cart. coord. in units of alat)
               a(1) = (   1.000000   0.000000   0.000000 )  
               a(2) = (  -0.500000   0.866025   0.000000 )  
               a(3) = (   0.000000   0.000000   2.085600 )  

     reciprocal axes: (cart. coord. in units 2 pi/alat)
               b(1) = (  1.000000  0.577350  0.000000 )  
               b(2) = (  0.000000  1.154701  0.000000 )  
               b(3) = (  0.000000  0.000000  0.479478 )  


     PseudoPot. # 1 for P  read from file:
     ./p_pbe_v1.5.uspp.F.UPF
     MD5 check sum: eb82b2c351da08c5f5f8709277dc7ee5
     Pseudo is Ultrasoft + core correction, Zval =  5.0
     Generated by new atomic code, or converted to UPF format
     Using radial grid of  903 points,  6 beta functions with: 
                l(1) =   0
                l(2) =   0
                l(3) =   1
                l(4) =   1
                l(5) =   2
                l(6) =   2
     Q(r) pseudized with  8 coefficients,  rinner =    1.300   1.300   1.300
                                                       1.300   1.300

     PseudoPot. # 2 for Cu read from file:
     ./cu_pbe_v1.2.uspp.F.UPF
     MD5 check sum: 6e991ff952a84172a2a52a1c1e996048
     Pseudo is Ultrasoft + core correction, Zval = 19.0
     Generated by new atomic code, or converted to UPF format
     Using radial grid of  867 points,  6 beta functions with: 
                l(1) =   0
                l(2) =   0
                l(3) =   1
                l(4) =   1
                l(5) =   2
                l(6) =   2
     Q(r) pseudized with  8 coefficients,  rinner =    1.150   1.150   1.150
                                                       1.150   1.150

     PseudoPot. # 3 for In read from file:
     ./in_pbe_v1.4.uspp.F.UPF
     MD5 check sum: 90777abd96fbb83f2e67db2a40c566b9
     Pseudo is Ultrasoft + core correction, Zval = 13.0
     Generated by new atomic code, or converted to UPF format
     Using radial grid of  889 points,  6 beta functions with: 
                l(1) =   0
                l(2) =   0
                l(3) =   1
                l(4) =   1
                l(5) =   2
                l(6) =   2
     Q(r) pseudized with  6 coefficients,  rinner =    1.400   1.400   1.400
                                                       1.400   1.400

     PseudoPot. # 4 for Se read from file:
     ./se_pbe_v1.uspp.F.UPF
     MD5 check sum: 1b3568f3a8ae88f9a2a0ad0698632c85
     Pseudo is Ultrasoft + core correction, Zval =  6.0
     Generated by new atomic code, or converted to UPF format
     Using radial grid of  877 points,  6 beta functions with: 
                l(1) =   0
                l(2) =   0
                l(3) =   1
                l(4) =   1
                l(5) =   2
                l(6) =   2
     Q(r) pseudized with  8 coefficients,  rinner =    1.300   1.300   1.300
                                                       1.300   1.300

     atomic species   valence    mass     pseudopotential
     P                 5.00    30.97400     P ( 1.00)
     Cu               19.00    63.54600     Cu( 1.00)
     In               13.00   114.81800     In( 1.00)
     Se                6.00    78.97100     Se( 1.00)

     No symmetry found



   Cartesian axes

     site n.     atom                  positions (alat units)
         1        Cu     tau(   1) = (   0.4999407   0.2887094   0.3616320  )
         2        Cu     tau(   2) = (   0.0000593   0.5773160   1.6585257  )
         3        In     tau(   3) = (   0.9999624   0.0000217   0.4985308  )
         4        In     tau(   4) = (  -0.4999624   0.8660037   1.5630322  )
         5        P      tau(   5) = (  -0.0000153   0.5773583   0.3284005  )
         6        P      tau(   6) = (  -0.0000146   0.5773595   0.6852271  )
         7        P      tau(   7) = (   0.5000153   0.2886671   1.7490025  )
         8        P      tau(   8) = (   0.5000146   0.2886659   1.3911986  )
         9        Se     tau(   9) = (   0.8210490   0.2948570   0.2279940  )
        10        Se     tau(  10) = (   0.3341170   0.5636510   0.2369579  )
        11        Se     tau(  11) = (   0.3447906   0.0075501   0.2605400  )
        12        Se     tau(  12) = (   0.6551709   0.0075477   0.8127135  )
        13        Se     tau(  13) = (   0.1789224   0.2948461   0.8132843  )
        14        Se     tau(  14) = (   0.6658567   0.5636530   0.7888860  )
        15        Se     tau(  15) = (  -0.3210490   0.5711684   1.7979477  )
        16        Se     tau(  16) = (   0.1658830   0.3023744   1.8699399  )
        17        Se     tau(  17) = (   0.1552094   0.8584753   1.8746879  )
        18        Se     tau(  18) = (  -0.1551709   0.8584777   1.2677083  )
        19        Se     tau(  19) = (   0.3210776   0.5711793   1.3256338  )
        20        Se     tau(  20) = (  -0.1658567   0.3023724   1.3360782  )

     -------------------------------------------------
     Parameters for Dispersion (Grimme-D2) Correction:
     -------------------------------------------------
       atom      VdW radius       C_6     

        P          3.222        271.980
        Cu         2.952        374.666
        In         3.160       1294.678
        Se         3.347        438.498

     number of k points=   324  Gaussian smearing, width (Ry)=  0.0200

     Number of k-points >= 100: set verbosity='high' to print them.

     Dense  grid:   307175 G-vectors     FFT dimensions: (  72,  72, 144)

     Smooth grid:   108599 G-vectors     FFT dimensions: (  50,  50, 108)

     Estimated max dynamical RAM per process >      71.90 MB

     Estimated total dynamical RAM >       8.77 GB

     Initial potential from superposition of free atoms

     starting charge     150.9985, renormalised to     156.0000
     Starting wfcs are  108 randomized atomic wfcs

     total cpu time spent up to now is        3.4 secs

     per-process dynamical memory:    91.0 Mb

     Self-consistent Calculation

     iteration #  1     ecut=    40.00 Ry     beta= 0.12
     Davidson diagonalization with overlap
     ethr =  1.00E-02,  avg # of iterations =  2.7

     total cpu time spent up to now is       13.2 secs

     total energy              =   -1660.43050835 Ry
     estimated scf accuracy    <       2.27303604 Ry

     iteration #  2     ecut=    40.00 Ry     beta= 0.12
     Davidson diagonalization with overlap
     ethr =  1.46E-03,  avg # of iterations =  2.0

     total cpu time spent up to now is       20.8 secs

     total energy              =   -1660.26921446 Ry
     estimated scf accuracy    <       1.21784706 Ry

     iteration #  3     ecut=    40.00 Ry     beta= 0.12
     Davidson diagonalization with overlap
     ethr =  7.81E-04,  avg # of iterations =  2.3

     total cpu time spent up to now is       28.5 secs

     total energy              =   -1660.17991018 Ry
     estimated scf accuracy    <       0.38720479 Ry

     iteration #  4     ecut=    40.00 Ry     beta= 0.12
     Davidson diagonalization with overlap
     ethr =  2.48E-04,  avg # of iterations = 10.1

     total cpu time spent up to now is       44.9 secs

     total energy              =   -1660.21880706 Ry
     estimated scf accuracy    <       0.10569309 Ry

     iteration #  5     ecut=    40.00 Ry     beta= 0.12
     Davidson diagonalization with overlap
     c_bands:  1 eigenvalues not converged
     ethr =  6.78E-05,  avg # of iterations =  3.5

     total cpu time spent up to now is       55.2 secs

     total energy              =   -1660.23092102 Ry
     estimated scf accuracy    <       0.06346361 Ry

     iteration #  6     ecut=    40.00 Ry     beta= 0.12
     Davidson diagonalization with overlap
     ethr =  4.07E-05,  avg # of iterations =  1.3

     total cpu time spent up to now is       62.0 secs

     total energy              =   -1660.22677366 Ry
     estimated scf accuracy    <       0.02344022 Ry

     iteration #  7     ecut=    40.00 Ry     beta= 0.12
     Davidson diagonalization with overlap
     ethr =  1.50E-05,  avg # of iterations =  6.2

     total cpu time spent up to now is       77.1 secs

     total energy              =   -1660.22936404 Ry
     estimated scf accuracy    <       0.02098794 Ry

     iteration #  8     ecut=    40.00 Ry     beta= 0.12
     Davidson diagonalization with overlap
     c_bands:  1 eigenvalues not converged
     ethr =  1.35E-05,  avg # of iterations =  2.1

     total cpu time spent up to now is       84.1 secs

     total energy              =   -1660.22946987 Ry
     estimated scf accuracy    <       0.00408060 Ry

     iteration #  9     ecut=    40.00 Ry     beta= 0.12
     Davidson diagonalization with overlap
     c_bands:  1 eigenvalues not converged
     ethr =  2.62E-06,  avg # of iterations =  6.3

     total cpu time spent up to now is       97.8 secs

     total energy              =   -1660.23013838 Ry
     estimated scf accuracy    <       0.00402537 Ry

     iteration # 10     ecut=    40.00 Ry     beta= 0.12
     Davidson diagonalization with overlap
     ethr =  2.58E-06,  avg # of iterations =  2.1

     total cpu time spent up to now is      105.3 secs

     total energy              =   -1660.23062610 Ry
     estimated scf accuracy    <       0.00019954 Ry

     iteration # 11     ecut=    40.00 Ry     beta= 0.12
     Davidson diagonalization with overlap
     ethr =  1.28E-07,  avg # of iterations =  6.1

     total cpu time spent up to now is      119.0 secs

     total energy              =   -1660.23072730 Ry
     estimated scf accuracy    <       0.00025961 Ry

     iteration # 12     ecut=    40.00 Ry     beta= 0.12
     Davidson diagonalization with overlap
     ethr =  1.28E-07,  avg # of iterations =  2.0

     total cpu time spent up to now is      126.3 secs

     total energy              =   -1660.23075601 Ry
     estimated scf accuracy    <       0.00002281 Ry

     iteration # 13     ecut=    40.00 Ry     beta= 0.12
     Davidson diagonalization with overlap
     ethr =  1.46E-08,  avg # of iterations =  5.0

     total cpu time spent up to now is      138.7 secs

     total energy              =   -1660.23076405 Ry
     estimated scf accuracy    <       0.00002789 Ry

     iteration # 14     ecut=    40.00 Ry     beta= 0.12
     Davidson diagonalization with overlap
     ethr =  1.46E-08,  avg # of iterations =  3.7

     total cpu time spent up to now is      147.9 secs

     total energy              =   -1660.23077415 Ry
     estimated scf accuracy    <       0.00000845 Ry

     iteration # 15     ecut=    40.00 Ry     beta= 0.12
     Davidson diagonalization with overlap
     ethr =  5.42E-09,  avg # of iterations =  2.0

     total cpu time spent up to now is      155.0 secs

     total energy              =   -1660.23077824 Ry
     estimated scf accuracy    <       0.00000112 Ry

     iteration # 16     ecut=    40.00 Ry     beta= 0.12
     Davidson diagonalization with overlap
     ethr =  7.18E-10,  avg # of iterations =  4.7

     total cpu time spent up to now is      166.8 secs

     End of self-consistent calculation

     Number of k-points >= 100: set verbosity='high' to print the bands.

     the Fermi energy is     6.8176 ev

!    total energy              =   -1660.23079022 Ry
     estimated scf accuracy    <       0.00000022 Ry
     smearing contrib. (-TS)   =      -0.00197243 Ry
     internal energy E=F+TS    =   -1660.22881779 Ry

     The total energy is F=E-TS. E is the sum of the following terms:
     one-electron contribution =   -1135.52193192 Ry
     hartree contribution      =     642.96037811 Ry
     xc contribution           =    -533.55648504 Ry
     ewald contribution        =    -633.84595858 Ry
     Dispersion Correction     =      -0.26482036 Ry

     convergence has been achieved in  16 iterations

     Writing all to output data dir ./test.save/ :
     XML data file, charge density, pseudopotentials, collected wavefunctions
 
     init_run     :      3.01s CPU      3.10s WALL (       1 calls)
     electrons    :    161.57s CPU    163.43s WALL (       1 calls)

     Called by init_run:
     wfcinit      :      2.86s CPU      2.93s WALL (       1 calls)
     potinit      :      0.01s CPU      0.01s WALL (       1 calls)
     hinit0       :      0.06s CPU      0.06s WALL (       1 calls)

     Called by electrons:
     c_bands      :    147.08s CPU    148.54s WALL (      16 calls)
     sum_band     :     13.99s CPU     14.30s WALL (      16 calls)
     v_of_rho     :      0.13s CPU      0.15s WALL (      17 calls)
     newd         :      0.30s CPU      0.32s WALL (      17 calls)
     mix_rho      :      0.02s CPU      0.02s WALL (      16 calls)
     energy_londo :      0.03s CPU      0.03s WALL (       1 calls)

     Called by c_bands:
     init_us_2    :      2.07s CPU      2.11s WALL (    2673 calls)
     cegterg      :    122.13s CPU    123.41s WALL (    1296 calls)

     Called by *egterg:
     cdiaghg      :     42.06s CPU     42.20s WALL (    6296 calls)
     h_psi        :     58.49s CPU     59.49s WALL (    6377 calls)
     s_psi        :      7.27s CPU      7.33s WALL (    6377 calls)
     g_psi        :      0.27s CPU      0.28s WALL (    5000 calls)

     Called by h_psi:
     h_psi:calbec :      7.47s CPU      7.56s WALL (    6377 calls)
     vloc_psi     :     43.21s CPU     44.06s WALL (    6377 calls)
     add_vuspsi   :      7.38s CPU      7.44s WALL (    6377 calls)

     General routines
     calbec       :      9.99s CPU     10.11s WALL (    7673 calls)
     fft          :      0.05s CPU      0.07s WALL (     219 calls)
     ffts         :      0.01s CPU      0.01s WALL (      33 calls)
     fftw         :     44.40s CPU     45.27s WALL (  758686 calls)
     interpolate  :      0.01s CPU      0.01s WALL (      17 calls)
 
     Parallel routines
 
     PWSCF        :    166.00s CPU    181.16s WALL

 
   This run was terminated on:   6:42: 0   9May2025            

=------------------------------------------------------------------------------=
   JOB DONE.
=------------------------------------------------------------------------------=
