
     Program PWSCF v.7.3.1 starts on  9May2025 at  2:52:28 

     This program is part of the open-source Quantum ESPRESSO suite
     for quantum simulation of materials; please cite
         "P. Giannozzi et al., J. Phys.:Condens. Matter 21 395502 (2009);
         "P. Giannozzi et al., J. Phys.:Condens. Matter 29 465901 (2017);
         "P. Giannozzi et al., J. Chem. Phys. 152 154105 (2020);
          URL http://www.quantum-espresso.org", 
     in publications or presentations arising from this work. More details at
     http://www.quantum-espresso.org/quote

     Parallel version (MPI & OpenMP), running on     128 processor cores
     Number of MPI processes:               128
     Threads/MPI process:                     1

     MPI processes distributed on     2 nodes
     1021514 MiB available memory on the printing compute node when the environment starts
 
     Waiting for input...
     Reading input from standard input
Warning: card &CELL ignored
Warning: card   PRESS = 0.0, ignored
Warning: card / ignored

     Current dimensions of program PWSCF are:
     Max number of different atomic species (ntypx) = 10
     Max number of k-points (npk) =  40000
     Max angular momentum in pseudopotentials (lmaxx) =  4

     IMPORTANT: XC functional enforced from input :
     Exchange-correlation= PBE
                           (   1   4   3   4   0   0   0)
     Any further DFT definition will be discarded
     Please, verify this is what you really want

 
     K-points division:     npool     =       4
     R & G space division:  proc/nbgrp/npool/nimage =      32
     Subspace diagonalization in iterative solution of the eigenvalue problem:
     a serial algorithm will be used

 
     Parallelization info
     --------------------
     sticks:   dense  smooth     PW     G-vecs:    dense   smooth      PW
     Min         100      50     14                 9594     3390     516
     Max         101      51     15                 9607     3397     525
     Sum        3217    1615    451               307175   108599   16633
 
     Using Slab Decomposition
 


     bravais-lattice index     =            4
     lattice parameter (alat)  =      12.0717  a.u.
     unit-cell volume          =    3177.3402 (a.u.)^3
     number of atoms/cell      =           20
     number of atomic types    =            4
     number of electrons       =       156.00
     number of Kohn-Sham states=           94
     kinetic-energy cutoff     =      40.0000  Ry
     charge density cutoff     =     320.0000  Ry
     scf convergence threshold =      1.0E-06
     mixing beta               =       0.1200
     number of iterations used =            8  plain     mixing
     Exchange-correlation= PBE
                           (   1   4   3   4   0   0   0)

     celldm(1)=  12.071670  celldm(2)=   0.000000  celldm(3)=   2.085600
     celldm(4)=   0.000000  celldm(5)=   0.000000  celldm(6)=   0.000000

     crystal axes: (cart. coord. in units of alat)
               a(1) = (   1.000000   0.000000   0.000000 )  
               a(2) = (  -0.500000   0.866025   0.000000 )  
               a(3) = (   0.000000   0.000000   2.085600 )  

     reciprocal axes: (cart. coord. in units 2 pi/alat)
               b(1) = (  1.000000  0.577350  0.000000 )  
               b(2) = (  0.000000  1.154701  0.000000 )  
               b(3) = (  0.000000  0.000000  0.479478 )  


     PseudoPot. # 1 for P  read from file:
     ./p_pbe_v1.5.uspp.F.UPF
     MD5 check sum: eb82b2c351da08c5f5f8709277dc7ee5
     Pseudo is Ultrasoft + core correction, Zval =  5.0
     Generated by new atomic code, or converted to UPF format
     Using radial grid of  903 points,  6 beta functions with: 
                l(1) =   0
                l(2) =   0
                l(3) =   1
                l(4) =   1
                l(5) =   2
                l(6) =   2
     Q(r) pseudized with  8 coefficients,  rinner =    1.300   1.300   1.300
                                                       1.300   1.300

     PseudoPot. # 2 for Cu read from file:
     ./cu_pbe_v1.2.uspp.F.UPF
     MD5 check sum: 6e991ff952a84172a2a52a1c1e996048
     Pseudo is Ultrasoft + core correction, Zval = 19.0
     Generated by new atomic code, or converted to UPF format
     Using radial grid of  867 points,  6 beta functions with: 
                l(1) =   0
                l(2) =   0
                l(3) =   1
                l(4) =   1
                l(5) =   2
                l(6) =   2
     Q(r) pseudized with  8 coefficients,  rinner =    1.150   1.150   1.150
                                                       1.150   1.150

     PseudoPot. # 3 for In read from file:
     ./in_pbe_v1.4.uspp.F.UPF
     MD5 check sum: 90777abd96fbb83f2e67db2a40c566b9
     Pseudo is Ultrasoft + core correction, Zval = 13.0
     Generated by new atomic code, or converted to UPF format
     Using radial grid of  889 points,  6 beta functions with: 
                l(1) =   0
                l(2) =   0
                l(3) =   1
                l(4) =   1
                l(5) =   2
                l(6) =   2
     Q(r) pseudized with  6 coefficients,  rinner =    1.400   1.400   1.400
                                                       1.400   1.400

     PseudoPot. # 4 for Se read from file:
     ./se_pbe_v1.uspp.F.UPF
     MD5 check sum: 1b3568f3a8ae88f9a2a0ad0698632c85
     Pseudo is Ultrasoft + core correction, Zval =  6.0
     Generated by new atomic code, or converted to UPF format
     Using radial grid of  877 points,  6 beta functions with: 
                l(1) =   0
                l(2) =   0
                l(3) =   1
                l(4) =   1
                l(5) =   2
                l(6) =   2
     Q(r) pseudized with  8 coefficients,  rinner =    1.300   1.300   1.300
                                                       1.300   1.300

     atomic species   valence    mass     pseudopotential
     P                 5.00    30.97400     P ( 1.00)
     Cu               19.00    63.54600     Cu( 1.00)
     In               13.00   114.81800     In( 1.00)
     Se                6.00    78.97100     Se( 1.00)

     No symmetry found



   Cartesian axes

     site n.     atom                  positions (alat units)
         1        Cu     tau(   1) = (   0.4999407   0.2887094   0.6465556  )
         2        Cu     tau(   2) = (   0.0000593   0.5773160   1.4464359  )
         3        In     tau(   3) = (   0.9999624   0.0000217   0.4933607  )
         4        In     tau(   4) = (  -0.4999624   0.8660037   1.5263304  )
         5        P      tau(   5) = (  -0.0000153   0.5773583   0.3307554  )
         6        P      tau(   6) = (  -0.0000146   0.5773595   0.7105377  )
         7        P      tau(   7) = (   0.5000153   0.2886671   1.7442564  )
         8        P      tau(   8) = (   0.5000146   0.2886659   1.3852224  )
         9        Se     tau(   9) = (   0.8210490   0.2948570   0.2595479  )
        10        Se     tau(  10) = (   0.3341170   0.5636510   0.2695845  )
        11        Se     tau(  11) = (   0.3447906   0.0075501   0.2557365  )
        12        Se     tau(  12) = (   0.6551709   0.0075477   0.8061054  )
        13        Se     tau(  13) = (   0.1789224   0.2948461   0.7765605  )
        14        Se     tau(  14) = (   0.6658567   0.5636530   0.8177272  )
        15        Se     tau(  15) = (  -0.3210490   0.5711684   1.7963239  )
        16        Se     tau(  16) = (   0.1658830   0.3023744   1.8540911  )
        17        Se     tau(  17) = (   0.1552094   0.8584753   1.8562686  )
        18        Se     tau(  18) = (  -0.1551709   0.8584777   1.3003945  )
        19        Se     tau(  19) = (   0.3210776   0.5711793   1.3305601  )
        20        Se     tau(  20) = (  -0.1658567   0.3023724   1.2566630  )

     -------------------------------------------------
     Parameters for Dispersion (Grimme-D2) Correction:
     -------------------------------------------------
       atom      VdW radius       C_6     

        P          3.222        271.980
        Cu         2.952        374.666
        In         3.160       1294.678
        Se         3.347        438.498

     number of k points=   324  Gaussian smearing, width (Ry)=  0.0200

     Number of k-points >= 100: set verbosity='high' to print them.

     Dense  grid:   307175 G-vectors     FFT dimensions: (  72,  72, 144)

     Smooth grid:   108599 G-vectors     FFT dimensions: (  50,  50, 108)

     Estimated max dynamical RAM per process >      71.90 MB

     Estimated total dynamical RAM >       8.77 GB

     Initial potential from superposition of free atoms

     starting charge     150.9985, renormalised to     156.0000
     Starting wfcs are  108 randomized atomic wfcs

     total cpu time spent up to now is        3.4 secs

     per-process dynamical memory:    91.0 Mb

     Self-consistent Calculation

     iteration #  1     ecut=    40.00 Ry     beta= 0.12
     Davidson diagonalization with overlap
     ethr =  1.00E-02,  avg # of iterations =  2.9

     total cpu time spent up to now is       13.3 secs

     total energy              =   -1660.43977904 Ry
     estimated scf accuracy    <       2.24799350 Ry

     iteration #  2     ecut=    40.00 Ry     beta= 0.12
     Davidson diagonalization with overlap
     ethr =  1.44E-03,  avg # of iterations =  2.0

     total cpu time spent up to now is       21.0 secs

     total energy              =   -1660.26694577 Ry
     estimated scf accuracy    <       1.19375872 Ry

     iteration #  3     ecut=    40.00 Ry     beta= 0.12
     Davidson diagonalization with overlap
     ethr =  7.65E-04,  avg # of iterations =  2.1

     total cpu time spent up to now is       28.4 secs

     total energy              =   -1660.19841994 Ry
     estimated scf accuracy    <       0.35508576 Ry

     iteration #  4     ecut=    40.00 Ry     beta= 0.12
     Davidson diagonalization with overlap
     ethr =  2.28E-04,  avg # of iterations =  9.7

     total cpu time spent up to now is       44.4 secs

     total energy              =   -1660.22525391 Ry
     estimated scf accuracy    <       0.09988835 Ry

     iteration #  5     ecut=    40.00 Ry     beta= 0.12
     Davidson diagonalization with overlap
     ethr =  6.40E-05,  avg # of iterations =  4.2

     total cpu time spent up to now is       55.0 secs

     total energy              =   -1660.22440300 Ry
     estimated scf accuracy    <       0.11449399 Ry

     iteration #  6     ecut=    40.00 Ry     beta= 0.12
     Davidson diagonalization with overlap
     ethr =  6.40E-05,  avg # of iterations =  2.4

     total cpu time spent up to now is       63.1 secs

     total energy              =   -1660.24063627 Ry
     estimated scf accuracy    <       0.01884127 Ry

     iteration #  7     ecut=    40.00 Ry     beta= 0.12
     Davidson diagonalization with overlap
     c_bands:  1 eigenvalues not converged
     c_bands:  1 eigenvalues not converged
     c_bands:  1 eigenvalues not converged
     c_bands:  1 eigenvalues not converged
     c_bands:  1 eigenvalues not converged
     c_bands:  1 eigenvalues not converged
     ethr =  1.21E-05,  avg # of iterations =  7.0

     total cpu time spent up to now is       78.3 secs

     total energy              =   -1660.23995035 Ry
     estimated scf accuracy    <       0.01011684 Ry

     iteration #  8     ecut=    40.00 Ry     beta= 0.12
     Davidson diagonalization with overlap
     ethr =  6.49E-06,  avg # of iterations =  3.0

     total cpu time spent up to now is       87.7 secs

     total energy              =   -1660.24117600 Ry
     estimated scf accuracy    <       0.00205516 Ry

     iteration #  9     ecut=    40.00 Ry     beta= 0.12
     Davidson diagonalization with overlap
     ethr =  1.32E-06,  avg # of iterations =  6.9

     total cpu time spent up to now is      101.3 secs

     total energy              =   -1660.24116545 Ry
     estimated scf accuracy    <       0.00066170 Ry

     iteration # 10     ecut=    40.00 Ry     beta= 0.12
     Davidson diagonalization with overlap
     ethr =  4.24E-07,  avg # of iterations =  4.7

     total cpu time spent up to now is      113.0 secs

     total energy              =   -1660.24134677 Ry
     estimated scf accuracy    <       0.00138610 Ry

     iteration # 11     ecut=    40.00 Ry     beta= 0.12
     Davidson diagonalization with overlap
     ethr =  4.24E-07,  avg # of iterations =  2.1

     total cpu time spent up to now is      120.7 secs

     total energy              =   -1660.24148100 Ry
     estimated scf accuracy    <       0.00006788 Ry

     iteration # 12     ecut=    40.00 Ry     beta= 0.12
     Davidson diagonalization with overlap
     ethr =  4.35E-08,  avg # of iterations =  4.9

     total cpu time spent up to now is      131.9 secs

     total energy              =   -1660.24151385 Ry
     estimated scf accuracy    <       0.00001052 Ry

     iteration # 13     ecut=    40.00 Ry     beta= 0.12
     Davidson diagonalization with overlap
     ethr =  6.74E-09,  avg # of iterations =  5.1

     total cpu time spent up to now is      143.2 secs

     total energy              =   -1660.24151911 Ry
     estimated scf accuracy    <       0.00000969 Ry

     iteration # 14     ecut=    40.00 Ry     beta= 0.12
     Davidson diagonalization with overlap
     ethr =  6.21E-09,  avg # of iterations =  3.5

     total cpu time spent up to now is      152.5 secs

     total energy              =   -1660.24152540 Ry
     estimated scf accuracy    <       0.00000735 Ry

     iteration # 15     ecut=    40.00 Ry     beta= 0.12
     Davidson diagonalization with overlap
     ethr =  4.71E-09,  avg # of iterations =  2.0

     total cpu time spent up to now is      159.8 secs

     End of self-consistent calculation

     Number of k-points >= 100: set verbosity='high' to print the bands.

     the Fermi energy is     6.7665 ev

!    total energy              =   -1660.24154144 Ry
     estimated scf accuracy    <       0.00000029 Ry
     smearing contrib. (-TS)   =      -0.00103035 Ry
     internal energy E=F+TS    =   -1660.24051109 Ry

     The total energy is F=E-TS. E is the sum of the following terms:
     one-electron contribution =   -1132.71194475 Ry
     hartree contribution      =     641.60001688 Ry
     xc contribution           =    -533.70197865 Ry
     ewald contribution        =    -635.16105050 Ry
     Dispersion Correction     =      -0.26555407 Ry

     convergence has been achieved in  15 iterations

     Writing all to output data dir ./test.save/ :
     XML data file, charge density, pseudopotentials, collected wavefunctions
 
     init_run     :      3.01s CPU      3.10s WALL (       1 calls)
     electrons    :    154.75s CPU    156.44s WALL (       1 calls)

     Called by init_run:
     wfcinit      :      2.86s CPU      2.93s WALL (       1 calls)
     potinit      :      0.03s CPU      0.04s WALL (       1 calls)
     hinit0       :      0.04s CPU      0.04s WALL (       1 calls)

     Called by electrons:
     c_bands      :    141.14s CPU    142.43s WALL (      15 calls)
     sum_band     :     13.15s CPU     13.44s WALL (      15 calls)
     v_of_rho     :      0.12s CPU      0.14s WALL (      16 calls)
     newd         :      0.28s CPU      0.31s WALL (      16 calls)
     mix_rho      :      0.02s CPU      0.03s WALL (      15 calls)
     energy_londo :      0.03s CPU      0.03s WALL (       1 calls)

     Called by c_bands:
     init_us_2    :      1.97s CPU      2.03s WALL (    2511 calls)
     cegterg      :    118.10s CPU    119.22s WALL (    1215 calls)

     Called by *egterg:
     cdiaghg      :     42.51s CPU     42.65s WALL (    6432 calls)
     h_psi        :     55.29s CPU     56.18s WALL (    6513 calls)
     s_psi        :      7.01s CPU      7.06s WALL (    6513 calls)
     g_psi        :      0.26s CPU      0.26s WALL (    5217 calls)

     Called by h_psi:
     h_psi:calbec :      7.13s CPU      7.21s WALL (    6513 calls)
     vloc_psi     :     40.66s CPU     41.41s WALL (    6513 calls)
     add_vuspsi   :      7.09s CPU      7.15s WALL (    6513 calls)

     General routines
     calbec       :      9.50s CPU      9.60s WALL (    7728 calls)
     fft          :      0.05s CPU      0.06s WALL (     206 calls)
     ffts         :      0.01s CPU      0.01s WALL (      31 calls)
     fftw         :     41.73s CPU     42.49s WALL (  713144 calls)
     interpolate  :      0.01s CPU      0.01s WALL (      16 calls)
 
     Parallel routines
 
     PWSCF        :    159.24s CPU    174.39s WALL

 
   This run was terminated on:   2:55:22   9May2025            

=------------------------------------------------------------------------------=
   JOB DONE.
=------------------------------------------------------------------------------=
