
     Program PWSCF v.7.3.1 starts on 24Apr2025 at  3:16:22 

     This program is part of the open-source Quantum ESPRESSO suite
     for quantum simulation of materials; please cite
         "P. Giannozzi et al., J. Phys.:Condens. Matter 21 395502 (2009);
         "P. Giannozzi et al., J. Phys.:Condens. Matter 29 465901 (2017);
         "P. Giannozzi et al., J. Chem. Phys. 152 154105 (2020);
          URL http://www.quantum-espresso.org", 
     in publications or presentations arising from this work. More details at
     http://www.quantum-espresso.org/quote

     Parallel version (MPI & OpenMP), running on     128 processor cores
     Number of MPI processes:               128
     Threads/MPI process:                     1

     MPI processes distributed on     2 nodes
     1002768 MiB available memory on the printing compute node when the environment starts
 
     Waiting for input...
     Reading input from standard input
Warning: card &CELL ignored
Warning: card   PRESS = 0.0, ignored
Warning: card / ignored

     Current dimensions of program PWSCF are:
     Max number of different atomic species (ntypx) = 10
     Max number of k-points (npk) =  40000
     Max angular momentum in pseudopotentials (lmaxx) =  4

     IMPORTANT: XC functional enforced from input :
     Exchange-correlation= PBE
                           (   1   4   3   4   0   0   0)
     Any further DFT definition will be discarded
     Please, verify this is what you really want

 
     K-points division:     npool     =       4
     R & G space division:  proc/nbgrp/npool/nimage =      32
     Subspace diagonalization in iterative solution of the eigenvalue problem:
     a serial algorithm will be used

 
     Parallelization info
     --------------------
     sticks:   dense  smooth     PW     G-vecs:    dense   smooth      PW
     Min         100      50     14                 9624     3400     517
     Max         101      51     16                 9637     3407     525
     Sum        3217    1615    463               308159   108923   16645
 
     Using Slab Decomposition
 


     bravais-lattice index     =            4
     lattice parameter (alat)  =      12.0809  a.u.
     unit-cell volume          =    3186.3136 (a.u.)^3
     number of atoms/cell      =           20
     number of atomic types    =            4
     number of electrons       =       156.00
     number of Kohn-Sham states=           94
     kinetic-energy cutoff     =      40.0000  Ry
     charge density cutoff     =     320.0000  Ry
     scf convergence threshold =      1.0E-06
     mixing beta               =       0.1200
     number of iterations used =            8  plain     mixing
     Exchange-correlation= PBE
                           (   1   4   3   4   0   0   0)

     celldm(1)=  12.080900  celldm(2)=   0.000000  celldm(3)=   2.086700
     celldm(4)=   0.000000  celldm(5)=   0.000000  celldm(6)=   0.000000

     crystal axes: (cart. coord. in units of alat)
               a(1) = (   1.000000   0.000000   0.000000 )  
               a(2) = (  -0.500000   0.866025   0.000000 )  
               a(3) = (   0.000000   0.000000   2.086700 )  

     reciprocal axes: (cart. coord. in units 2 pi/alat)
               b(1) = (  1.000000  0.577350  0.000000 )  
               b(2) = (  0.000000  1.154701  0.000000 )  
               b(3) = (  0.000000  0.000000  0.479226 )  


     PseudoPot. # 1 for P  read from file:
     ./p_pbe_v1.5.uspp.F.UPF
     MD5 check sum: eb82b2c351da08c5f5f8709277dc7ee5
     Pseudo is Ultrasoft + core correction, Zval =  5.0
     Generated by new atomic code, or converted to UPF format
     Using radial grid of  903 points,  6 beta functions with: 
                l(1) =   0
                l(2) =   0
                l(3) =   1
                l(4) =   1
                l(5) =   2
                l(6) =   2
     Q(r) pseudized with  8 coefficients,  rinner =    1.300   1.300   1.300
                                                       1.300   1.300

     PseudoPot. # 2 for Cu read from file:
     ./cu_pbe_v1.2.uspp.F.UPF
     MD5 check sum: 6e991ff952a84172a2a52a1c1e996048
     Pseudo is Ultrasoft + core correction, Zval = 19.0
     Generated by new atomic code, or converted to UPF format
     Using radial grid of  867 points,  6 beta functions with: 
                l(1) =   0
                l(2) =   0
                l(3) =   1
                l(4) =   1
                l(5) =   2
                l(6) =   2
     Q(r) pseudized with  8 coefficients,  rinner =    1.150   1.150   1.150
                                                       1.150   1.150

     PseudoPot. # 3 for In read from file:
     ./in_pbe_v1.4.uspp.F.UPF
     MD5 check sum: 90777abd96fbb83f2e67db2a40c566b9
     Pseudo is Ultrasoft + core correction, Zval = 13.0
     Generated by new atomic code, or converted to UPF format
     Using radial grid of  889 points,  6 beta functions with: 
                l(1) =   0
                l(2) =   0
                l(3) =   1
                l(4) =   1
                l(5) =   2
                l(6) =   2
     Q(r) pseudized with  6 coefficients,  rinner =    1.400   1.400   1.400
                                                       1.400   1.400

     PseudoPot. # 4 for Se read from file:
     ./se_pbe_v1.uspp.F.UPF
     MD5 check sum: 1b3568f3a8ae88f9a2a0ad0698632c85
     Pseudo is Ultrasoft + core correction, Zval =  6.0
     Generated by new atomic code, or converted to UPF format
     Using radial grid of  877 points,  6 beta functions with: 
                l(1) =   0
                l(2) =   0
                l(3) =   1
                l(4) =   1
                l(5) =   2
                l(6) =   2
     Q(r) pseudized with  8 coefficients,  rinner =    1.300   1.300   1.300
                                                       1.300   1.300

     atomic species   valence    mass     pseudopotential
     P                 5.00    30.97400     P ( 1.00)
     Cu               19.00    63.54600     Cu( 1.00)
     In               13.00   114.81800     In( 1.00)
     Se                6.00    78.97100     Se( 1.00)

     No symmetry found



   Cartesian axes

     site n.     atom                  positions (alat units)
         1        Cu     tau(   1) = (   0.5000500   0.2886463   0.6535864  )
         2        Cu     tau(   2) = (  -0.0000500   0.5773791   1.6161493  )
         3        In     tau(   3) = (   0.0000000   0.0000000   0.5098489  )
         4        In     tau(   4) = (   0.0000000   0.0000000   1.5815811  )
         5        P      tau(   5) = (  -0.0000500   0.5773791   0.3427813  )
         6        P      tau(   6) = (  -0.0000500   0.5773791   0.7136382  )
         7        P      tau(   7) = (   0.5000500   0.2886463  -0.3413865  )
         8        P      tau(   8) = (   0.5000500   0.2886463   1.3777576  )
         9        Se     tau(   9) = (  -0.1605500   0.2945352   0.2321032  )
        10        Se     tau(  10) = (  -0.1748000  -0.2863080   0.2720854  )
        11        Se     tau(  11) = (   0.3353500  -0.0082272   0.2799842  )
        12        Se     tau(  12) = (  -0.3353500  -0.0082272   0.7790327  )
        13        Se     tau(  13) = (   0.1605500   0.2945352   0.8333810  )
        14        Se     tau(  14) = (   0.1748000  -0.2863080   0.7540774  )
        15        Se     tau(  15) = (   0.1605500  -0.2945352  -0.2378944  )
        16        Se     tau(  16) = (   0.1748000   0.2863080  -0.2479610  )
        17        Se     tau(  17) = (  -0.3353500   0.0082272  -0.2868663  )
        18        Se     tau(  18) = (   0.3353500   0.0082272   1.3269474  )
        19        Se     tau(  19) = (  -0.1605500  -0.2945352   1.3254229  )
        20        Se     tau(  20) = (  -0.1748000   0.2863080   1.2792519  )

     -------------------------------------------------
     Parameters for Dispersion (Grimme-D2) Correction:
     -------------------------------------------------
       atom      VdW radius       C_6     

        P          3.222        271.980
        Cu         2.952        374.666
        In         3.160       1294.678
        Se         3.347        438.498

     number of k points=   324  Gaussian smearing, width (Ry)=  0.0200

     Number of k-points >= 100: set verbosity='high' to print them.

     Dense  grid:   308159 G-vectors     FFT dimensions: (  72,  72, 144)

     Smooth grid:   108923 G-vectors     FFT dimensions: (  50,  50, 108)

     Estimated max dynamical RAM per process >      72.07 MB

     Estimated total dynamical RAM >       8.79 GB

     Initial potential from superposition of free atoms

     starting charge     150.9985, renormalised to     156.0000
     Starting wfcs are  108 randomized atomic wfcs

     total cpu time spent up to now is        3.4 secs

     per-process dynamical memory:    91.0 Mb

     Self-consistent Calculation

     iteration #  1     ecut=    40.00 Ry     beta= 0.12
     Davidson diagonalization with overlap
     ethr =  1.00E-02,  avg # of iterations =  3.0

     total cpu time spent up to now is       13.4 secs

     total energy              =   -1660.41597193 Ry
     estimated scf accuracy    <       2.04000012 Ry

     iteration #  2     ecut=    40.00 Ry     beta= 0.12
     Davidson diagonalization with overlap
     ethr =  1.31E-03,  avg # of iterations =  2.0

     total cpu time spent up to now is       21.2 secs

     total energy              =   -1660.24255614 Ry
     estimated scf accuracy    <       1.10893622 Ry

     iteration #  3     ecut=    40.00 Ry     beta= 0.12
     Davidson diagonalization with overlap
     ethr =  7.11E-04,  avg # of iterations =  2.2

     total cpu time spent up to now is       28.6 secs

     total energy              =   -1660.19202177 Ry
     estimated scf accuracy    <       0.31047021 Ry

     iteration #  4     ecut=    40.00 Ry     beta= 0.12
     Davidson diagonalization with overlap
     ethr =  1.99E-04,  avg # of iterations =  9.9

     total cpu time spent up to now is       45.3 secs

     total energy              =   -1660.22043507 Ry
     estimated scf accuracy    <       0.08595892 Ry

     iteration #  5     ecut=    40.00 Ry     beta= 0.12
     Davidson diagonalization with overlap
     ethr =  5.51E-05,  avg # of iterations =  3.6

     total cpu time spent up to now is       54.5 secs

     total energy              =   -1660.22975744 Ry
     estimated scf accuracy    <       0.05360751 Ry

     iteration #  6     ecut=    40.00 Ry     beta= 0.12
     Davidson diagonalization with overlap
     ethr =  3.44E-05,  avg # of iterations =  2.0

     total cpu time spent up to now is       61.4 secs

     total energy              =   -1660.22817415 Ry
     estimated scf accuracy    <       0.01483805 Ry

     iteration #  7     ecut=    40.00 Ry     beta= 0.12
     Davidson diagonalization with overlap
     c_bands:  1 eigenvalues not converged
     c_bands:  1 eigenvalues not converged
     c_bands:  1 eigenvalues not converged
     c_bands:  1 eigenvalues not converged
     c_bands:  1 eigenvalues not converged
     c_bands:  1 eigenvalues not converged
     ethr =  9.51E-06,  avg # of iterations =  7.6

     total cpu time spent up to now is       76.9 secs

     total energy              =   -1660.22643670 Ry
     estimated scf accuracy    <       0.03437642 Ry

     iteration #  8     ecut=    40.00 Ry     beta= 0.12
     Davidson diagonalization with overlap
     ethr =  9.51E-06,  avg # of iterations =  4.2

     total cpu time spent up to now is       86.8 secs

     total energy              =   -1660.23132145 Ry
     estimated scf accuracy    <       0.00154629 Ry

     iteration #  9     ecut=    40.00 Ry     beta= 0.12
     Davidson diagonalization with overlap
     ethr =  9.91E-07,  avg # of iterations =  7.0

     total cpu time spent up to now is      100.9 secs

     total energy              =   -1660.23152642 Ry
     estimated scf accuracy    <       0.00025884 Ry

     iteration # 10     ecut=    40.00 Ry     beta= 0.12
     Davidson diagonalization with overlap
     ethr =  1.66E-07,  avg # of iterations =  5.9

     total cpu time spent up to now is      114.5 secs

     total energy              =   -1660.23163359 Ry
     estimated scf accuracy    <       0.00033108 Ry

     iteration # 11     ecut=    40.00 Ry     beta= 0.12
     Davidson diagonalization with overlap
     ethr =  1.66E-07,  avg # of iterations =  2.5

     total cpu time spent up to now is      122.2 secs

     total energy              =   -1660.23168774 Ry
     estimated scf accuracy    <       0.00001969 Ry

     iteration # 12     ecut=    40.00 Ry     beta= 0.12
     Davidson diagonalization with overlap
     ethr =  1.26E-08,  avg # of iterations =  4.6

     total cpu time spent up to now is      133.4 secs

     total energy              =   -1660.23169059 Ry
     estimated scf accuracy    <       0.00005854 Ry

     iteration # 13     ecut=    40.00 Ry     beta= 0.12
     Davidson diagonalization with overlap
     ethr =  1.26E-08,  avg # of iterations =  2.8

     total cpu time spent up to now is      141.7 secs

     total energy              =   -1660.23169915 Ry
     estimated scf accuracy    <       0.00000772 Ry

     iteration # 14     ecut=    40.00 Ry     beta= 0.12
     Davidson diagonalization with overlap
     ethr =  4.95E-09,  avg # of iterations =  4.1

     total cpu time spent up to now is      151.6 secs

     total energy              =   -1660.23170530 Ry
     estimated scf accuracy    <       0.00000199 Ry

     iteration # 15     ecut=    40.00 Ry     beta= 0.12
     Davidson diagonalization with overlap
     ethr =  1.28E-09,  avg # of iterations =  4.5

     total cpu time spent up to now is      163.1 secs

     total energy              =   -1660.23170941 Ry
     estimated scf accuracy    <       0.00000123 Ry

     iteration # 16     ecut=    40.00 Ry     beta= 0.12
     Davidson diagonalization with overlap
     ethr =  7.91E-10,  avg # of iterations =  3.0

     total cpu time spent up to now is      171.6 secs

     End of self-consistent calculation

     Number of k-points >= 100: set verbosity='high' to print the bands.

     the Fermi energy is     6.7987 ev

!    total energy              =   -1660.23172195 Ry
     estimated scf accuracy    <       0.00000022 Ry
     smearing contrib. (-TS)   =      -0.00044494 Ry
     internal energy E=F+TS    =   -1660.23127701 Ry

     The total energy is F=E-TS. E is the sum of the following terms:
     one-electron contribution =   -1112.49872718 Ry
     hartree contribution      =     631.94292825 Ry
     xc contribution           =    -534.16479406 Ry
     ewald contribution        =    -645.24967997 Ry
     Dispersion Correction     =      -0.26100405 Ry

     convergence has been achieved in  16 iterations

     Writing all to output data dir ./test.save/ :
     XML data file, charge density, pseudopotentials, collected wavefunctions
 
     init_run     :      3.02s CPU      3.10s WALL (       1 calls)
     electrons    :    166.44s CPU    168.30s WALL (       1 calls)

     Called by init_run:
     wfcinit      :      2.87s CPU      2.93s WALL (       1 calls)
     potinit      :      0.04s CPU      0.04s WALL (       1 calls)
     hinit0       :      0.03s CPU      0.04s WALL (       1 calls)

     Called by electrons:
     c_bands      :    151.84s CPU    153.34s WALL (      16 calls)
     sum_band     :     14.09s CPU     14.36s WALL (      16 calls)
     v_of_rho     :      0.15s CPU      0.16s WALL (      17 calls)
     newd         :      0.31s CPU      0.33s WALL (      17 calls)
     mix_rho      :      0.02s CPU      0.03s WALL (      16 calls)
     energy_londo :      0.03s CPU      0.03s WALL (       1 calls)

     Called by c_bands:
     init_us_2    :      2.03s CPU      2.08s WALL (    2673 calls)
     cegterg      :    129.32s CPU    130.66s WALL (    1296 calls)

     Called by *egterg:
     cdiaghg      :     47.08s CPU     47.25s WALL (    7080 calls)
     h_psi        :     59.94s CPU     60.98s WALL (    7161 calls)
     s_psi        :      7.58s CPU      7.64s WALL (    7161 calls)
     g_psi        :      0.28s CPU      0.29s WALL (    5784 calls)

     Called by h_psi:
     h_psi:calbec :      7.79s CPU      7.88s WALL (    7161 calls)
     vloc_psi     :     44.03s CPU     44.91s WALL (    7161 calls)
     add_vuspsi   :      7.68s CPU      7.75s WALL (    7161 calls)

     General routines
     calbec       :     10.29s CPU     10.41s WALL (    8457 calls)
     fft          :      0.07s CPU      0.08s WALL (     219 calls)
     ffts         :      0.01s CPU      0.01s WALL (      33 calls)
     fftw         :     45.09s CPU     45.97s WALL (  769800 calls)
     interpolate  :      0.01s CPU      0.01s WALL (      17 calls)
 
     Parallel routines
 
     PWSCF        :    170.96s CPU    186.14s WALL

 
   This run was terminated on:   3:19:28  24Apr2025            

=------------------------------------------------------------------------------=
   JOB DONE.
=------------------------------------------------------------------------------=
