
     Program PWSCF v.7.3.1 starts on  9May2025 at  3:59:31 

     This program is part of the open-source Quantum ESPRESSO suite
     for quantum simulation of materials; please cite
         "P. Giannozzi et al., J. Phys.:Condens. Matter 21 395502 (2009);
         "P. Giannozzi et al., J. Phys.:Condens. Matter 29 465901 (2017);
         "P. Giannozzi et al., J. Chem. Phys. 152 154105 (2020);
          URL http://www.quantum-espresso.org", 
     in publications or presentations arising from this work. More details at
     http://www.quantum-espresso.org/quote

     Parallel version (MPI & OpenMP), running on     128 processor cores
     Number of MPI processes:               128
     Threads/MPI process:                     1

     MPI processes distributed on     2 nodes
     1021513 MiB available memory on the printing compute node when the environment starts
 
     Waiting for input...
     Reading input from standard input
Warning: card &CELL ignored
Warning: card   PRESS = 0.0, ignored
Warning: card / ignored

     Current dimensions of program PWSCF are:
     Max number of different atomic species (ntypx) = 10
     Max number of k-points (npk) =  40000
     Max angular momentum in pseudopotentials (lmaxx) =  4

     IMPORTANT: XC functional enforced from input :
     Exchange-correlation= PBE
                           (   1   4   3   4   0   0   0)
     Any further DFT definition will be discarded
     Please, verify this is what you really want

 
     K-points division:     npool     =       4
     R & G space division:  proc/nbgrp/npool/nimage =      32
     Subspace diagonalization in iterative solution of the eigenvalue problem:
     a serial algorithm will be used

 
     Parallelization info
     --------------------
     sticks:   dense  smooth     PW     G-vecs:    dense   smooth      PW
     Min         100      50     14                 9594     3390     516
     Max         101      51     15                 9607     3397     525
     Sum        3217    1615    451               307175   108599   16633
 
     Using Slab Decomposition
 


     bravais-lattice index     =            4
     lattice parameter (alat)  =      12.0717  a.u.
     unit-cell volume          =    3177.3402 (a.u.)^3
     number of atoms/cell      =           20
     number of atomic types    =            4
     number of electrons       =       156.00
     number of Kohn-Sham states=           94
     kinetic-energy cutoff     =      40.0000  Ry
     charge density cutoff     =     320.0000  Ry
     scf convergence threshold =      1.0E-06
     mixing beta               =       0.1200
     number of iterations used =            8  plain     mixing
     Exchange-correlation= PBE
                           (   1   4   3   4   0   0   0)

     celldm(1)=  12.071670  celldm(2)=   0.000000  celldm(3)=   2.085600
     celldm(4)=   0.000000  celldm(5)=   0.000000  celldm(6)=   0.000000

     crystal axes: (cart. coord. in units of alat)
               a(1) = (   1.000000   0.000000   0.000000 )  
               a(2) = (  -0.500000   0.866025   0.000000 )  
               a(3) = (   0.000000   0.000000   2.085600 )  

     reciprocal axes: (cart. coord. in units 2 pi/alat)
               b(1) = (  1.000000  0.577350  0.000000 )  
               b(2) = (  0.000000  1.154701  0.000000 )  
               b(3) = (  0.000000  0.000000  0.479478 )  


     PseudoPot. # 1 for P  read from file:
     ./p_pbe_v1.5.uspp.F.UPF
     MD5 check sum: eb82b2c351da08c5f5f8709277dc7ee5
     Pseudo is Ultrasoft + core correction, Zval =  5.0
     Generated by new atomic code, or converted to UPF format
     Using radial grid of  903 points,  6 beta functions with: 
                l(1) =   0
                l(2) =   0
                l(3) =   1
                l(4) =   1
                l(5) =   2
                l(6) =   2
     Q(r) pseudized with  8 coefficients,  rinner =    1.300   1.300   1.300
                                                       1.300   1.300

     PseudoPot. # 2 for Cu read from file:
     ./cu_pbe_v1.2.uspp.F.UPF
     MD5 check sum: 6e991ff952a84172a2a52a1c1e996048
     Pseudo is Ultrasoft + core correction, Zval = 19.0
     Generated by new atomic code, or converted to UPF format
     Using radial grid of  867 points,  6 beta functions with: 
                l(1) =   0
                l(2) =   0
                l(3) =   1
                l(4) =   1
                l(5) =   2
                l(6) =   2
     Q(r) pseudized with  8 coefficients,  rinner =    1.150   1.150   1.150
                                                       1.150   1.150

     PseudoPot. # 3 for In read from file:
     ./in_pbe_v1.4.uspp.F.UPF
     MD5 check sum: 90777abd96fbb83f2e67db2a40c566b9
     Pseudo is Ultrasoft + core correction, Zval = 13.0
     Generated by new atomic code, or converted to UPF format
     Using radial grid of  889 points,  6 beta functions with: 
                l(1) =   0
                l(2) =   0
                l(3) =   1
                l(4) =   1
                l(5) =   2
                l(6) =   2
     Q(r) pseudized with  6 coefficients,  rinner =    1.400   1.400   1.400
                                                       1.400   1.400

     PseudoPot. # 4 for Se read from file:
     ./se_pbe_v1.uspp.F.UPF
     MD5 check sum: 1b3568f3a8ae88f9a2a0ad0698632c85
     Pseudo is Ultrasoft + core correction, Zval =  6.0
     Generated by new atomic code, or converted to UPF format
     Using radial grid of  877 points,  6 beta functions with: 
                l(1) =   0
                l(2) =   0
                l(3) =   1
                l(4) =   1
                l(5) =   2
                l(6) =   2
     Q(r) pseudized with  8 coefficients,  rinner =    1.300   1.300   1.300
                                                       1.300   1.300

     atomic species   valence    mass     pseudopotential
     P                 5.00    30.97400     P ( 1.00)
     Cu               19.00    63.54600     Cu( 1.00)
     In               13.00   114.81800     In( 1.00)
     Se                6.00    78.97100     Se( 1.00)

     No symmetry found



   Cartesian axes

     site n.     atom                  positions (alat units)
         1        Cu     tau(   1) = (   0.4999407   0.2887094   0.6558327  )
         2        Cu     tau(   2) = (   0.0000593   0.5773160   1.7166344  )
         3        In     tau(   3) = (   0.9999624   0.0000217   0.5428221  )
         4        In     tau(   4) = (  -0.4999624   0.8660037   1.5645705  )
         5        P      tau(   5) = (  -0.0000153   0.5773583   0.3465049  )
         6        P      tau(   6) = (  -0.0000146   0.5773595   0.7047868  )
         7        P      tau(   7) = (   0.5000153   0.2886671   1.7457242  )
         8        P      tau(   8) = (   0.5000146   0.2886659   1.3816454  )
         9        Se     tau(   9) = (   0.8210490   0.2948570   0.2794961  )
        10        Se     tau(  10) = (   0.3341170   0.5636510   0.2664481  )
        11        Se     tau(  11) = (   0.3447906   0.0075501   0.2778432  )
        12        Se     tau(  12) = (   0.6551709   0.0075477   0.8120147  )
        13        Se     tau(  13) = (   0.1789224   0.2948461   0.8088314  )
        14        Se     tau(  14) = (   0.6658567   0.5636530   0.7824728  )
        15        Se     tau(  15) = (  -0.3210490   0.5711684   1.8431587  )
        16        Se     tau(  16) = (   0.1658830   0.3023744   1.8329510  )
        17        Se     tau(  17) = (   0.1552094   0.8584753   1.8305415  )
        18        Se     tau(  18) = (  -0.1551709   0.8584777   1.3040957  )
        19        Se     tau(  19) = (   0.3210776   0.5711793   1.2955059  )
        20        Se     tau(  20) = (  -0.1658567   0.3023724   1.2742109  )

     -------------------------------------------------
     Parameters for Dispersion (Grimme-D2) Correction:
     -------------------------------------------------
       atom      VdW radius       C_6     

        P          3.222        271.980
        Cu         2.952        374.666
        In         3.160       1294.678
        Se         3.347        438.498

     number of k points=   324  Gaussian smearing, width (Ry)=  0.0200

     Number of k-points >= 100: set verbosity='high' to print them.

     Dense  grid:   307175 G-vectors     FFT dimensions: (  72,  72, 144)

     Smooth grid:   108599 G-vectors     FFT dimensions: (  50,  50, 108)

     Estimated max dynamical RAM per process >      71.90 MB

     Estimated total dynamical RAM >       8.77 GB

     Initial potential from superposition of free atoms

     starting charge     150.9985, renormalised to     156.0000
     Starting wfcs are  108 randomized atomic wfcs

     total cpu time spent up to now is        3.4 secs

     per-process dynamical memory:    91.0 Mb

     Self-consistent Calculation

     iteration #  1     ecut=    40.00 Ry     beta= 0.12
     Davidson diagonalization with overlap
     ethr =  1.00E-02,  avg # of iterations =  2.8

     total cpu time spent up to now is       13.2 secs

     total energy              =   -1660.51578962 Ry
     estimated scf accuracy    <       2.00658443 Ry

     iteration #  2     ecut=    40.00 Ry     beta= 0.12
     Davidson diagonalization with overlap
     ethr =  1.29E-03,  avg # of iterations =  2.0

     total cpu time spent up to now is       20.9 secs

     total energy              =   -1660.22672322 Ry
     estimated scf accuracy    <       1.19711103 Ry

     iteration #  3     ecut=    40.00 Ry     beta= 0.12
     Davidson diagonalization with overlap
     ethr =  7.67E-04,  avg # of iterations =  3.1

     total cpu time spent up to now is       30.2 secs

     total energy              =   -1660.28022659 Ry
     estimated scf accuracy    <       0.21785344 Ry

     iteration #  4     ecut=    40.00 Ry     beta= 0.12
     Davidson diagonalization with overlap
     ethr =  1.40E-04,  avg # of iterations = 11.5

     total cpu time spent up to now is       47.3 secs

     total energy              =   -1660.26923642 Ry
     estimated scf accuracy    <       0.11195444 Ry

     iteration #  5     ecut=    40.00 Ry     beta= 0.12
     Davidson diagonalization with overlap
     ethr =  7.18E-05,  avg # of iterations =  4.1

     total cpu time spent up to now is       57.5 secs

     total energy              =   -1660.26282099 Ry
     estimated scf accuracy    <       0.22237849 Ry

     iteration #  6     ecut=    40.00 Ry     beta= 0.12
     Davidson diagonalization with overlap
     ethr =  7.18E-05,  avg # of iterations =  3.0

     total cpu time spent up to now is       65.9 secs

     total energy              =   -1660.29190234 Ry
     estimated scf accuracy    <       0.01511273 Ry

     iteration #  7     ecut=    40.00 Ry     beta= 0.12
     Davidson diagonalization with overlap
     c_bands:  1 eigenvalues not converged
     c_bands:  1 eigenvalues not converged
     ethr =  9.69E-06,  avg # of iterations =  3.9

     total cpu time spent up to now is       77.4 secs

     total energy              =   -1660.29215456 Ry
     estimated scf accuracy    <       0.00423046 Ry

     iteration #  8     ecut=    40.00 Ry     beta= 0.12
     Davidson diagonalization with overlap
     c_bands:  1 eigenvalues not converged
     c_bands:  1 eigenvalues not converged
     ethr =  2.71E-06,  avg # of iterations =  7.1

     total cpu time spent up to now is       92.5 secs

     total energy              =   -1660.29277907 Ry
     estimated scf accuracy    <       0.00100649 Ry

     iteration #  9     ecut=    40.00 Ry     beta= 0.12
     Davidson diagonalization with overlap
     ethr =  6.45E-07,  avg # of iterations =  5.0

     total cpu time spent up to now is      102.4 secs

     total energy              =   -1660.29290059 Ry
     estimated scf accuracy    <       0.00041730 Ry

     iteration # 10     ecut=    40.00 Ry     beta= 0.12
     Davidson diagonalization with overlap
     ethr =  2.67E-07,  avg # of iterations =  2.2

     total cpu time spent up to now is      111.0 secs

     total energy              =   -1660.29298427 Ry
     estimated scf accuracy    <       0.00015386 Ry

     iteration # 11     ecut=    40.00 Ry     beta= 0.12
     Davidson diagonalization with overlap
     ethr =  9.86E-08,  avg # of iterations =  5.1

     total cpu time spent up to now is      122.8 secs

     total energy              =   -1660.29305205 Ry
     estimated scf accuracy    <       0.00002981 Ry

     iteration # 12     ecut=    40.00 Ry     beta= 0.12
     Davidson diagonalization with overlap
     ethr =  1.91E-08,  avg # of iterations =  5.4

     total cpu time spent up to now is      136.0 secs

     total energy              =   -1660.29307235 Ry
     estimated scf accuracy    <       0.00003171 Ry

     iteration # 13     ecut=    40.00 Ry     beta= 0.12
     Davidson diagonalization with overlap
     ethr =  1.91E-08,  avg # of iterations =  2.0

     total cpu time spent up to now is      143.0 secs

     total energy              =   -1660.29307873 Ry
     estimated scf accuracy    <       0.00000468 Ry

     iteration # 14     ecut=    40.00 Ry     beta= 0.12
     Davidson diagonalization with overlap
     ethr =  3.00E-09,  avg # of iterations =  4.2

     total cpu time spent up to now is      154.8 secs

     total energy              =   -1660.29308439 Ry
     estimated scf accuracy    <       0.00000976 Ry

     iteration # 15     ecut=    40.00 Ry     beta= 0.12
     Davidson diagonalization with overlap
     ethr =  3.00E-09,  avg # of iterations =  2.3

     total cpu time spent up to now is      162.7 secs

     End of self-consistent calculation

     Number of k-points >= 100: set verbosity='high' to print the bands.

     the Fermi energy is     6.7205 ev

!    total energy              =   -1660.29310033 Ry
     estimated scf accuracy    <       0.00000063 Ry
     smearing contrib. (-TS)   =      -0.00031522 Ry
     internal energy E=F+TS    =   -1660.29278511 Ry

     The total energy is F=E-TS. E is the sum of the following terms:
     one-electron contribution =   -1111.11833640 Ry
     hartree contribution      =     630.52077701 Ry
     xc contribution           =    -533.76882574 Ry
     ewald contribution        =    -645.66078204 Ry
     Dispersion Correction     =      -0.26561794 Ry

     convergence has been achieved in  15 iterations

     Writing all to output data dir ./test.save/ :
     XML data file, charge density, pseudopotentials, collected wavefunctions
 
     init_run     :      3.01s CPU      3.10s WALL (       1 calls)
     electrons    :    157.53s CPU    159.33s WALL (       1 calls)

     Called by init_run:
     wfcinit      :      2.85s CPU      2.93s WALL (       1 calls)
     potinit      :      0.01s CPU      0.02s WALL (       1 calls)
     hinit0       :      0.06s CPU      0.06s WALL (       1 calls)

     Called by electrons:
     c_bands      :    143.95s CPU    145.36s WALL (      15 calls)
     sum_band     :     13.11s CPU     13.40s WALL (      15 calls)
     v_of_rho     :      0.13s CPU      0.14s WALL (      16 calls)
     newd         :      0.28s CPU      0.31s WALL (      16 calls)
     mix_rho      :      0.02s CPU      0.02s WALL (      15 calls)
     energy_londo :      0.03s CPU      0.03s WALL (       1 calls)

     Called by c_bands:
     init_us_2    :      1.97s CPU      2.03s WALL (    2511 calls)
     cegterg      :    121.66s CPU    122.93s WALL (    1215 calls)

     Called by *egterg:
     cdiaghg      :     43.09s CPU     43.24s WALL (    6338 calls)
     h_psi        :     57.22s CPU     58.24s WALL (    6419 calls)
     s_psi        :      7.20s CPU      7.26s WALL (    6419 calls)
     g_psi        :      0.28s CPU      0.28s WALL (    5123 calls)

     Called by h_psi:
     h_psi:calbec :      7.36s CPU      7.45s WALL (    6419 calls)
     vloc_psi     :     42.16s CPU     43.04s WALL (    6419 calls)
     add_vuspsi   :      7.28s CPU      7.34s WALL (    6419 calls)

     General routines
     calbec       :      9.73s CPU      9.84s WALL (    7634 calls)
     fft          :      0.06s CPU      0.07s WALL (     206 calls)
     ffts         :      0.00s CPU      0.01s WALL (      31 calls)
     fftw         :     43.03s CPU     43.91s WALL (  735474 calls)
     interpolate  :      0.01s CPU      0.01s WALL (      16 calls)
 
     Parallel routines
 
     PWSCF        :    162.04s CPU    177.14s WALL

 
   This run was terminated on:   4: 2:28   9May2025            

=------------------------------------------------------------------------------=
   JOB DONE.
=------------------------------------------------------------------------------=
