
     Program PWSCF v.7.3.1 starts on 23Apr2025 at 21:19:58 

     This program is part of the open-source Quantum ESPRESSO suite
     for quantum simulation of materials; please cite
         "P. Giannozzi et al., J. Phys.:Condens. Matter 21 395502 (2009);
         "P. Giannozzi et al., J. Phys.:Condens. Matter 29 465901 (2017);
         "P. Giannozzi et al., J. Chem. Phys. 152 154105 (2020);
          URL http://www.quantum-espresso.org", 
     in publications or presentations arising from this work. More details at
     http://www.quantum-espresso.org/quote

     Parallel version (MPI & OpenMP), running on     128 processor cores
     Number of MPI processes:               128
     Threads/MPI process:                     1

     MPI processes distributed on     2 nodes
     1002798 MiB available memory on the printing compute node when the environment starts
 
     Waiting for input...
     Reading input from standard input
Warning: card &CELL ignored
Warning: card   PRESS = 0.0, ignored
Warning: card / ignored

     Current dimensions of program PWSCF are:
     Max number of different atomic species (ntypx) = 10
     Max number of k-points (npk) =  40000
     Max angular momentum in pseudopotentials (lmaxx) =  4

     IMPORTANT: XC functional enforced from input :
     Exchange-correlation= PBE
                           (   1   4   3   4   0   0   0)
     Any further DFT definition will be discarded
     Please, verify this is what you really want

 
     K-points division:     npool     =       4
     R & G space division:  proc/nbgrp/npool/nimage =      32
     Subspace diagonalization in iterative solution of the eigenvalue problem:
     a serial algorithm will be used

 
     Parallelization info
     --------------------
     sticks:   dense  smooth     PW     G-vecs:    dense   smooth      PW
     Min         100      50     14                 9624     3400     517
     Max         101      51     16                 9637     3407     525
     Sum        3217    1615    463               308159   108923   16645
 
     Using Slab Decomposition
 


     bravais-lattice index     =            4
     lattice parameter (alat)  =      12.0809  a.u.
     unit-cell volume          =    3186.3136 (a.u.)^3
     number of atoms/cell      =           20
     number of atomic types    =            4
     number of electrons       =       156.00
     number of Kohn-Sham states=           94
     kinetic-energy cutoff     =      40.0000  Ry
     charge density cutoff     =     320.0000  Ry
     scf convergence threshold =      1.0E-06
     mixing beta               =       0.1200
     number of iterations used =            8  plain     mixing
     Exchange-correlation= PBE
                           (   1   4   3   4   0   0   0)

     celldm(1)=  12.080900  celldm(2)=   0.000000  celldm(3)=   2.086700
     celldm(4)=   0.000000  celldm(5)=   0.000000  celldm(6)=   0.000000

     crystal axes: (cart. coord. in units of alat)
               a(1) = (   1.000000   0.000000   0.000000 )  
               a(2) = (  -0.500000   0.866025   0.000000 )  
               a(3) = (   0.000000   0.000000   2.086700 )  

     reciprocal axes: (cart. coord. in units 2 pi/alat)
               b(1) = (  1.000000  0.577350  0.000000 )  
               b(2) = (  0.000000  1.154701  0.000000 )  
               b(3) = (  0.000000  0.000000  0.479226 )  


     PseudoPot. # 1 for P  read from file:
     ./p_pbe_v1.5.uspp.F.UPF
     MD5 check sum: eb82b2c351da08c5f5f8709277dc7ee5
     Pseudo is Ultrasoft + core correction, Zval =  5.0
     Generated by new atomic code, or converted to UPF format
     Using radial grid of  903 points,  6 beta functions with: 
                l(1) =   0
                l(2) =   0
                l(3) =   1
                l(4) =   1
                l(5) =   2
                l(6) =   2
     Q(r) pseudized with  8 coefficients,  rinner =    1.300   1.300   1.300
                                                       1.300   1.300

     PseudoPot. # 2 for Cu read from file:
     ./cu_pbe_v1.2.uspp.F.UPF
     MD5 check sum: 6e991ff952a84172a2a52a1c1e996048
     Pseudo is Ultrasoft + core correction, Zval = 19.0
     Generated by new atomic code, or converted to UPF format
     Using radial grid of  867 points,  6 beta functions with: 
                l(1) =   0
                l(2) =   0
                l(3) =   1
                l(4) =   1
                l(5) =   2
                l(6) =   2
     Q(r) pseudized with  8 coefficients,  rinner =    1.150   1.150   1.150
                                                       1.150   1.150

     PseudoPot. # 3 for In read from file:
     ./in_pbe_v1.4.uspp.F.UPF
     MD5 check sum: 90777abd96fbb83f2e67db2a40c566b9
     Pseudo is Ultrasoft + core correction, Zval = 13.0
     Generated by new atomic code, or converted to UPF format
     Using radial grid of  889 points,  6 beta functions with: 
                l(1) =   0
                l(2) =   0
                l(3) =   1
                l(4) =   1
                l(5) =   2
                l(6) =   2
     Q(r) pseudized with  6 coefficients,  rinner =    1.400   1.400   1.400
                                                       1.400   1.400

     PseudoPot. # 4 for Se read from file:
     ./se_pbe_v1.uspp.F.UPF
     MD5 check sum: 1b3568f3a8ae88f9a2a0ad0698632c85
     Pseudo is Ultrasoft + core correction, Zval =  6.0
     Generated by new atomic code, or converted to UPF format
     Using radial grid of  877 points,  6 beta functions with: 
                l(1) =   0
                l(2) =   0
                l(3) =   1
                l(4) =   1
                l(5) =   2
                l(6) =   2
     Q(r) pseudized with  8 coefficients,  rinner =    1.300   1.300   1.300
                                                       1.300   1.300

     atomic species   valence    mass     pseudopotential
     P                 5.00    30.97400     P ( 1.00)
     Cu               19.00    63.54600     Cu( 1.00)
     In               13.00   114.81800     In( 1.00)
     Se                6.00    78.97100     Se( 1.00)

     No symmetry found



   Cartesian axes

     site n.     atom                  positions (alat units)
         1        Cu     tau(   1) = (   0.5000500   0.2886463   0.4704317  )
         2        Cu     tau(   2) = (  -0.0000500   0.5773791   1.4231418  )
         3        In     tau(   3) = (   0.0000000   0.0000000   0.5203342  )
         4        In     tau(   4) = (   0.0000000   0.0000000   1.5865185  )
         5        P      tau(   5) = (  -0.0000500   0.5773791   0.3402562  )
         6        P      tau(   6) = (  -0.0000500   0.5773791   0.6926728  )
         7        P      tau(   7) = (   0.5000500   0.2886463  -0.3603323  )
         8        P      tau(   8) = (   0.5000500   0.2886463   1.3820361  )
         9        Se     tau(   9) = (  -0.1605500   0.2945352   0.2126177  )
        10        Se     tau(  10) = (  -0.1748000  -0.2863080   0.2132406  )
        11        Se     tau(  11) = (   0.3353500  -0.0082272   0.2373038  )
        12        Se     tau(  12) = (  -0.3353500  -0.0082272   0.7610579  )
        13        Se     tau(  13) = (   0.1605500   0.2945352   0.8193012  )
        14        Se     tau(  14) = (   0.1748000  -0.2863080   0.8275396  )
        15        Se     tau(  15) = (   0.1605500  -0.2945352  -0.2368552  )
        16        Se     tau(  16) = (   0.1748000   0.2863080  -0.2791043  )
        17        Se     tau(  17) = (  -0.3353500   0.0082272  -0.2898021  )
        18        Se     tau(  18) = (   0.3353500   0.0082272   1.3074062  )
        19        Se     tau(  19) = (  -0.1605500  -0.2945352   1.2908533  )
        20        Se     tau(  20) = (  -0.1748000   0.2863080   1.2695495  )

     -------------------------------------------------
     Parameters for Dispersion (Grimme-D2) Correction:
     -------------------------------------------------
       atom      VdW radius       C_6     

        P          3.222        271.980
        Cu         2.952        374.666
        In         3.160       1294.678
        Se         3.347        438.498

     number of k points=   324  Gaussian smearing, width (Ry)=  0.0200

     Number of k-points >= 100: set verbosity='high' to print them.

     Dense  grid:   308159 G-vectors     FFT dimensions: (  72,  72, 144)

     Smooth grid:   108923 G-vectors     FFT dimensions: (  50,  50, 108)

     Estimated max dynamical RAM per process >      72.07 MB

     Estimated total dynamical RAM >       8.79 GB

     Initial potential from superposition of free atoms

     starting charge     150.9985, renormalised to     156.0000
     Starting wfcs are  108 randomized atomic wfcs

     total cpu time spent up to now is        3.6 secs

     per-process dynamical memory:    91.0 Mb

     Self-consistent Calculation

     iteration #  1     ecut=    40.00 Ry     beta= 0.12
     Davidson diagonalization with overlap
     ethr =  1.00E-02,  avg # of iterations =  2.7

     total cpu time spent up to now is       13.8 secs

     total energy              =   -1660.47091875 Ry
     estimated scf accuracy    <       2.17080033 Ry

     iteration #  2     ecut=    40.00 Ry     beta= 0.12
     Davidson diagonalization with overlap
     ethr =  1.39E-03,  avg # of iterations =  2.0

     total cpu time spent up to now is       21.5 secs

     total energy              =   -1660.29228191 Ry
     estimated scf accuracy    <       1.16161583 Ry

     iteration #  3     ecut=    40.00 Ry     beta= 0.12
     Davidson diagonalization with overlap
     ethr =  7.45E-04,  avg # of iterations =  2.3

     total cpu time spent up to now is       28.9 secs

     total energy              =   -1660.23536973 Ry
     estimated scf accuracy    <       0.33529218 Ry

     iteration #  4     ecut=    40.00 Ry     beta= 0.12
     Davidson diagonalization with overlap
     ethr =  2.15E-04,  avg # of iterations = 10.3

     total cpu time spent up to now is       45.6 secs

     total energy              =   -1660.27579883 Ry
     estimated scf accuracy    <       0.08543094 Ry

     iteration #  5     ecut=    40.00 Ry     beta= 0.12
     Davidson diagonalization with overlap
     ethr =  5.48E-05,  avg # of iterations =  2.5

     total cpu time spent up to now is       53.3 secs

     total energy              =   -1660.27324262 Ry
     estimated scf accuracy    <       0.03589155 Ry

     iteration #  6     ecut=    40.00 Ry     beta= 0.12
     Davidson diagonalization with overlap
     ethr =  2.30E-05,  avg # of iterations =  5.7

     total cpu time spent up to now is       66.8 secs

     total energy              =   -1660.26928764 Ry
     estimated scf accuracy    <       0.01850118 Ry

     iteration #  7     ecut=    40.00 Ry     beta= 0.12
     Davidson diagonalization with overlap
     ethr =  1.19E-05,  avg # of iterations =  4.9

     total cpu time spent up to now is       78.8 secs

     total energy              =   -1660.26799058 Ry
     estimated scf accuracy    <       0.07060872 Ry

     iteration #  8     ecut=    40.00 Ry     beta= 0.12
     Davidson diagonalization with overlap
     ethr =  1.19E-05,  avg # of iterations =  4.5

     total cpu time spent up to now is       89.9 secs

     total energy              =   -1660.27506367 Ry
     estimated scf accuracy    <       0.00172068 Ry

     iteration #  9     ecut=    40.00 Ry     beta= 0.12
     Davidson diagonalization with overlap
     c_bands:  1 eigenvalues not converged
     c_bands:  1 eigenvalues not converged
     c_bands:  1 eigenvalues not converged
     c_bands:  1 eigenvalues not converged
     ethr =  1.10E-06,  avg # of iterations =  8.1

     total cpu time spent up to now is      106.0 secs

     total energy              =   -1660.27548376 Ry
     estimated scf accuracy    <       0.00324423 Ry

     iteration # 10     ecut=    40.00 Ry     beta= 0.12
     Davidson diagonalization with overlap
     ethr =  1.10E-06,  avg # of iterations =  2.0

     total cpu time spent up to now is      113.2 secs

     total energy              =   -1660.27557437 Ry
     estimated scf accuracy    <       0.00056572 Ry

     iteration # 11     ecut=    40.00 Ry     beta= 0.12
     Davidson diagonalization with overlap
     ethr =  3.63E-07,  avg # of iterations =  3.1

     total cpu time spent up to now is      121.5 secs

     total energy              =   -1660.27567925 Ry
     estimated scf accuracy    <       0.00003168 Ry

     iteration # 12     ecut=    40.00 Ry     beta= 0.12
     Davidson diagonalization with overlap
     ethr =  2.03E-08,  avg # of iterations =  6.5

     total cpu time spent up to now is      138.8 secs

     total energy              =   -1660.27572349 Ry
     estimated scf accuracy    <       0.00001285 Ry

     iteration # 13     ecut=    40.00 Ry     beta= 0.12
     Davidson diagonalization with overlap
     ethr =  8.24E-09,  avg # of iterations =  2.3

     total cpu time spent up to now is      146.4 secs

     total energy              =   -1660.27572364 Ry
     estimated scf accuracy    <       0.00001897 Ry

     iteration # 14     ecut=    40.00 Ry     beta= 0.12
     Davidson diagonalization with overlap
     ethr =  8.24E-09,  avg # of iterations =  4.1

     total cpu time spent up to now is      156.1 secs

     total energy              =   -1660.27573118 Ry
     estimated scf accuracy    <       0.00000500 Ry

     iteration # 15     ecut=    40.00 Ry     beta= 0.12
     Davidson diagonalization with overlap
     ethr =  3.20E-09,  avg # of iterations =  4.2

     total cpu time spent up to now is      166.2 secs

     total energy              =   -1660.27573571 Ry
     estimated scf accuracy    <       0.00000349 Ry

     iteration # 16     ecut=    40.00 Ry     beta= 0.12
     Davidson diagonalization with overlap
     ethr =  2.24E-09,  avg # of iterations =  3.0

     total cpu time spent up to now is      174.3 secs

     End of self-consistent calculation

     Number of k-points >= 100: set verbosity='high' to print the bands.

     the Fermi energy is     6.9095 ev

!    total energy              =   -1660.27574843 Ry
     estimated scf accuracy    <       0.00000025 Ry
     smearing contrib. (-TS)   =      -0.00086762 Ry
     internal energy E=F+TS    =   -1660.27488081 Ry

     The total energy is F=E-TS. E is the sum of the following terms:
     one-electron contribution =   -1079.93545022 Ry
     hartree contribution      =     616.13749420 Ry
     xc contribution           =    -533.75762550 Ry
     ewald contribution        =    -662.45619489 Ry
     Dispersion Correction     =      -0.26310439 Ry

     convergence has been achieved in  16 iterations

     Writing all to output data dir ./test.save/ :
     XML data file, charge density, pseudopotentials, collected wavefunctions
 
     init_run     :      3.22s CPU      3.36s WALL (       1 calls)
     electrons    :    168.83s CPU    170.71s WALL (       1 calls)

     Called by init_run:
     wfcinit      :      3.06s CPU      3.19s WALL (       1 calls)
     potinit      :      0.01s CPU      0.02s WALL (       1 calls)
     hinit0       :      0.06s CPU      0.06s WALL (       1 calls)

     Called by electrons:
     c_bands      :    154.36s CPU    155.83s WALL (      16 calls)
     sum_band     :     13.96s CPU     14.28s WALL (      16 calls)
     v_of_rho     :      0.14s CPU      0.15s WALL (      17 calls)
     newd         :      0.31s CPU      0.33s WALL (      17 calls)
     mix_rho      :      0.02s CPU      0.03s WALL (      16 calls)
     energy_londo :      0.03s CPU      0.03s WALL (       1 calls)

     Called by c_bands:
     init_us_2    :      2.12s CPU      2.17s WALL (    2673 calls)
     cegterg      :    129.07s CPU    130.37s WALL (    1296 calls)

     Called by *egterg:
     cdiaghg      :     45.09s CPU     45.25s WALL (    6857 calls)
     h_psi        :     61.38s CPU     62.44s WALL (    6938 calls)
     s_psi        :      7.67s CPU      7.74s WALL (    6938 calls)
     g_psi        :      0.29s CPU      0.30s WALL (    5561 calls)

     Called by h_psi:
     h_psi:calbec :      7.86s CPU      7.96s WALL (    6938 calls)
     vloc_psi     :     45.27s CPU     46.16s WALL (    6938 calls)
     add_vuspsi   :      7.80s CPU      7.87s WALL (    6938 calls)

     General routines
     calbec       :     10.36s CPU     10.49s WALL (    8234 calls)
     fft          :      0.07s CPU      0.08s WALL (     219 calls)
     ffts         :      0.00s CPU      0.01s WALL (      33 calls)
     fftw         :     46.15s CPU     47.04s WALL (  783454 calls)
     interpolate  :      0.01s CPU      0.01s WALL (      17 calls)
 
     Parallel routines
 
     PWSCF        :    173.46s CPU    188.65s WALL

 
   This run was terminated on:  21:23: 6  23Apr2025            

=------------------------------------------------------------------------------=
   JOB DONE.
=------------------------------------------------------------------------------=
