
     Program PWSCF v.7.3.1 starts on  9May2025 at 14:27:22 

     This program is part of the open-source Quantum ESPRESSO suite
     for quantum simulation of materials; please cite
         "P. Giannozzi et al., J. Phys.:Condens. Matter 21 395502 (2009);
         "P. Giannozzi et al., J. Phys.:Condens. Matter 29 465901 (2017);
         "P. Giannozzi et al., J. Chem. Phys. 152 154105 (2020);
          URL http://www.quantum-espresso.org", 
     in publications or presentations arising from this work. More details at
     http://www.quantum-espresso.org/quote

     Parallel version (MPI & OpenMP), running on     128 processor cores
     Number of MPI processes:               128
     Threads/MPI process:                     1

     MPI processes distributed on     2 nodes
     1021567 MiB available memory on the printing compute node when the environment starts
 
     Waiting for input...
     Reading input from standard input
Warning: card &CELL ignored
Warning: card   PRESS = 0.0, ignored
Warning: card / ignored

     Current dimensions of program PWSCF are:
     Max number of different atomic species (ntypx) = 10
     Max number of k-points (npk) =  40000
     Max angular momentum in pseudopotentials (lmaxx) =  4

     IMPORTANT: XC functional enforced from input :
     Exchange-correlation= PBE
                           (   1   4   3   4   0   0   0)
     Any further DFT definition will be discarded
     Please, verify this is what you really want

 
     K-points division:     npool     =       4
     R & G space division:  proc/nbgrp/npool/nimage =      32
     Subspace diagonalization in iterative solution of the eigenvalue problem:
     a serial algorithm will be used

 
     Parallelization info
     --------------------
     sticks:   dense  smooth     PW     G-vecs:    dense   smooth      PW
     Min         100      50     14                 9594     3390     516
     Max         101      51     15                 9607     3397     525
     Sum        3217    1615    451               307175   108599   16633
 
     Using Slab Decomposition
 


     bravais-lattice index     =            4
     lattice parameter (alat)  =      12.0717  a.u.
     unit-cell volume          =    3177.3402 (a.u.)^3
     number of atoms/cell      =           20
     number of atomic types    =            4
     number of electrons       =       156.00
     number of Kohn-Sham states=           94
     kinetic-energy cutoff     =      40.0000  Ry
     charge density cutoff     =     320.0000  Ry
     scf convergence threshold =      1.0E-06
     mixing beta               =       0.1200
     number of iterations used =            8  plain     mixing
     Exchange-correlation= PBE
                           (   1   4   3   4   0   0   0)

     celldm(1)=  12.071670  celldm(2)=   0.000000  celldm(3)=   2.085600
     celldm(4)=   0.000000  celldm(5)=   0.000000  celldm(6)=   0.000000

     crystal axes: (cart. coord. in units of alat)
               a(1) = (   1.000000   0.000000   0.000000 )  
               a(2) = (  -0.500000   0.866025   0.000000 )  
               a(3) = (   0.000000   0.000000   2.085600 )  

     reciprocal axes: (cart. coord. in units 2 pi/alat)
               b(1) = (  1.000000  0.577350  0.000000 )  
               b(2) = (  0.000000  1.154701  0.000000 )  
               b(3) = (  0.000000  0.000000  0.479478 )  


     PseudoPot. # 1 for P  read from file:
     ./p_pbe_v1.5.uspp.F.UPF
     MD5 check sum: eb82b2c351da08c5f5f8709277dc7ee5
     Pseudo is Ultrasoft + core correction, Zval =  5.0
     Generated by new atomic code, or converted to UPF format
     Using radial grid of  903 points,  6 beta functions with: 
                l(1) =   0
                l(2) =   0
                l(3) =   1
                l(4) =   1
                l(5) =   2
                l(6) =   2
     Q(r) pseudized with  8 coefficients,  rinner =    1.300   1.300   1.300
                                                       1.300   1.300

     PseudoPot. # 2 for Cu read from file:
     ./cu_pbe_v1.2.uspp.F.UPF
     MD5 check sum: 6e991ff952a84172a2a52a1c1e996048
     Pseudo is Ultrasoft + core correction, Zval = 19.0
     Generated by new atomic code, or converted to UPF format
     Using radial grid of  867 points,  6 beta functions with: 
                l(1) =   0
                l(2) =   0
                l(3) =   1
                l(4) =   1
                l(5) =   2
                l(6) =   2
     Q(r) pseudized with  8 coefficients,  rinner =    1.150   1.150   1.150
                                                       1.150   1.150

     PseudoPot. # 3 for In read from file:
     ./in_pbe_v1.4.uspp.F.UPF
     MD5 check sum: 90777abd96fbb83f2e67db2a40c566b9
     Pseudo is Ultrasoft + core correction, Zval = 13.0
     Generated by new atomic code, or converted to UPF format
     Using radial grid of  889 points,  6 beta functions with: 
                l(1) =   0
                l(2) =   0
                l(3) =   1
                l(4) =   1
                l(5) =   2
                l(6) =   2
     Q(r) pseudized with  6 coefficients,  rinner =    1.400   1.400   1.400
                                                       1.400   1.400

     PseudoPot. # 4 for Se read from file:
     ./se_pbe_v1.uspp.F.UPF
     MD5 check sum: 1b3568f3a8ae88f9a2a0ad0698632c85
     Pseudo is Ultrasoft + core correction, Zval =  6.0
     Generated by new atomic code, or converted to UPF format
     Using radial grid of  877 points,  6 beta functions with: 
                l(1) =   0
                l(2) =   0
                l(3) =   1
                l(4) =   1
                l(5) =   2
                l(6) =   2
     Q(r) pseudized with  8 coefficients,  rinner =    1.300   1.300   1.300
                                                       1.300   1.300

     atomic species   valence    mass     pseudopotential
     P                 5.00    30.97400     P ( 1.00)
     Cu               19.00    63.54600     Cu( 1.00)
     In               13.00   114.81800     In( 1.00)
     Se                6.00    78.97100     Se( 1.00)

     No symmetry found



   Cartesian axes

     site n.     atom                  positions (alat units)
         1        Cu     tau(   1) = (   0.4999407   0.2887094   0.5869651  )
         2        Cu     tau(   2) = (   0.0000593   0.5773160   1.7297326  )
         3        In     tau(   3) = (   0.9999624   0.0000217   0.5058105  )
         4        In     tau(   4) = (  -0.4999624   0.8660037   1.5898181  )
         5        P      tau(   5) = (  -0.0000153   0.5773583   0.3372420  )
         6        P      tau(   6) = (  -0.0000146   0.5773595   0.7024084  )
         7        P      tau(   7) = (   0.5000153   0.2886671   1.7358886  )
         8        P      tau(   8) = (   0.5000146   0.2886659   1.3964623  )
         9        Se     tau(   9) = (   0.8210490   0.2948570   0.2256476  )
        10        Se     tau(  10) = (   0.3341170   0.5636510   0.2480838  )
        11        Se     tau(  11) = (   0.3447906   0.0075501   0.2922750  )
        12        Se     tau(  12) = (   0.6551709   0.0075477   0.7670599  )
        13        Se     tau(  13) = (   0.1789224   0.2948461   0.8153184  )
        14        Se     tau(  14) = (   0.6658567   0.5636530   0.8130790  )
        15        Se     tau(  15) = (  -0.3210490   0.5711684   1.8537108  )
        16        Se     tau(  16) = (   0.1658830   0.3023744   1.8428494  )
        17        Se     tau(  17) = (   0.1552094   0.8584753   1.8188986  )
        18        Se     tau(  18) = (  -0.1551709   0.8584777   1.2864796  )
        19        Se     tau(  19) = (   0.3210776   0.5711793   1.2642809  )
        20        Se     tau(  20) = (  -0.1658567   0.3023724   1.3087371  )

     -------------------------------------------------
     Parameters for Dispersion (Grimme-D2) Correction:
     -------------------------------------------------
       atom      VdW radius       C_6     

        P          3.222        271.980
        Cu         2.952        374.666
        In         3.160       1294.678
        Se         3.347        438.498

     number of k points=   324  Gaussian smearing, width (Ry)=  0.0200

     Number of k-points >= 100: set verbosity='high' to print them.

     Dense  grid:   307175 G-vectors     FFT dimensions: (  72,  72, 144)

     Smooth grid:   108599 G-vectors     FFT dimensions: (  50,  50, 108)

     Estimated max dynamical RAM per process >      71.90 MB

     Estimated total dynamical RAM >       8.77 GB

     Initial potential from superposition of free atoms

     starting charge     150.9985, renormalised to     156.0000
     Starting wfcs are  108 randomized atomic wfcs

     total cpu time spent up to now is        3.4 secs

     per-process dynamical memory:    91.0 Mb

     Self-consistent Calculation

     iteration #  1     ecut=    40.00 Ry     beta= 0.12
     Davidson diagonalization with overlap
     ethr =  1.00E-02,  avg # of iterations =  2.8

     total cpu time spent up to now is       13.2 secs

     total energy              =   -1660.45462281 Ry
     estimated scf accuracy    <       2.25289521 Ry

     iteration #  2     ecut=    40.00 Ry     beta= 0.12
     Davidson diagonalization with overlap
     ethr =  1.44E-03,  avg # of iterations =  2.0

     total cpu time spent up to now is       20.8 secs

     total energy              =   -1660.27374121 Ry
     estimated scf accuracy    <       1.21102380 Ry

     iteration #  3     ecut=    40.00 Ry     beta= 0.12
     Davidson diagonalization with overlap
     ethr =  7.76E-04,  avg # of iterations =  2.4

     total cpu time spent up to now is       28.4 secs

     total energy              =   -1660.21113257 Ry
     estimated scf accuracy    <       0.35810405 Ry

     iteration #  4     ecut=    40.00 Ry     beta= 0.12
     Davidson diagonalization with overlap
     ethr =  2.30E-04,  avg # of iterations = 10.4

     total cpu time spent up to now is       45.2 secs

     total energy              =   -1660.24684150 Ry
     estimated scf accuracy    <       0.09987717 Ry

     iteration #  5     ecut=    40.00 Ry     beta= 0.12
     Davidson diagonalization with overlap
     ethr =  6.40E-05,  avg # of iterations =  2.9

     total cpu time spent up to now is       54.0 secs

     total energy              =   -1660.25122611 Ry
     estimated scf accuracy    <       0.03884423 Ry

     iteration #  6     ecut=    40.00 Ry     beta= 0.12
     Davidson diagonalization with overlap
     ethr =  2.49E-05,  avg # of iterations =  3.1

     total cpu time spent up to now is       63.0 secs

     total energy              =   -1660.25035363 Ry
     estimated scf accuracy    <       0.01505063 Ry

     iteration #  7     ecut=    40.00 Ry     beta= 0.12
     Davidson diagonalization with overlap
     c_bands:  1 eigenvalues not converged
     c_bands:  1 eigenvalues not converged
     c_bands:  1 eigenvalues not converged
     ethr =  9.65E-06,  avg # of iterations =  7.2

     total cpu time spent up to now is       78.9 secs

     total energy              =   -1660.24987351 Ry
     estimated scf accuracy    <       0.01337711 Ry

     iteration #  8     ecut=    40.00 Ry     beta= 0.12
     Davidson diagonalization with overlap
     c_bands:  1 eigenvalues not converged
     ethr =  8.58E-06,  avg # of iterations =  2.2

     total cpu time spent up to now is       86.6 secs

     total energy              =   -1660.25141826 Ry
     estimated scf accuracy    <       0.00185850 Ry

     iteration #  9     ecut=    40.00 Ry     beta= 0.12
     Davidson diagonalization with overlap
     ethr =  1.19E-06,  avg # of iterations =  6.2

     total cpu time spent up to now is      100.6 secs

     total energy              =   -1660.25178621 Ry
     estimated scf accuracy    <       0.00035449 Ry

     iteration # 10     ecut=    40.00 Ry     beta= 0.12
     Davidson diagonalization with overlap
     ethr =  2.27E-07,  avg # of iterations =  5.4

     total cpu time spent up to now is      112.5 secs

     total energy              =   -1660.25189600 Ry
     estimated scf accuracy    <       0.00013606 Ry

     iteration # 11     ecut=    40.00 Ry     beta= 0.12
     Davidson diagonalization with overlap
     ethr =  8.72E-08,  avg # of iterations =  3.5

     total cpu time spent up to now is      123.5 secs

     total energy              =   -1660.25193077 Ry
     estimated scf accuracy    <       0.00003954 Ry

     iteration # 12     ecut=    40.00 Ry     beta= 0.12
     Davidson diagonalization with overlap
     ethr =  2.53E-08,  avg # of iterations =  4.0

     total cpu time spent up to now is      134.4 secs

     total energy              =   -1660.25194683 Ry
     estimated scf accuracy    <       0.00000987 Ry

     iteration # 13     ecut=    40.00 Ry     beta= 0.12
     Davidson diagonalization with overlap
     ethr =  6.33E-09,  avg # of iterations =  4.6

     total cpu time spent up to now is      147.1 secs

     total energy              =   -1660.25195508 Ry
     estimated scf accuracy    <       0.00000351 Ry

     iteration # 14     ecut=    40.00 Ry     beta= 0.12
     Davidson diagonalization with overlap
     ethr =  2.25E-09,  avg # of iterations =  4.3

     total cpu time spent up to now is      158.9 secs

     total energy              =   -1660.25195940 Ry
     estimated scf accuracy    <       0.00000612 Ry

     iteration # 15     ecut=    40.00 Ry     beta= 0.12
     Davidson diagonalization with overlap
     ethr =  2.25E-09,  avg # of iterations =  3.4

     total cpu time spent up to now is      168.5 secs

     total energy              =   -1660.25196402 Ry
     estimated scf accuracy    <       0.00000140 Ry

     iteration # 16     ecut=    40.00 Ry     beta= 0.12
     Davidson diagonalization with overlap
     ethr =  9.00E-10,  avg # of iterations =  2.0

     total cpu time spent up to now is      175.5 secs

     End of self-consistent calculation

     Number of k-points >= 100: set verbosity='high' to print the bands.

     the Fermi energy is     6.8519 ev

!    total energy              =   -1660.25197572 Ry
     estimated scf accuracy    <       0.00000024 Ry
     smearing contrib. (-TS)   =      -0.00173223 Ry
     internal energy E=F+TS    =   -1660.25024348 Ry

     The total energy is F=E-TS. E is the sum of the following terms:
     one-electron contribution =   -1105.50483246 Ry
     hartree contribution      =     628.06859423 Ry
     xc contribution           =    -533.58241392 Ry
     ewald contribution        =    -648.96714900 Ry
     Dispersion Correction     =      -0.26444234 Ry

     convergence has been achieved in  16 iterations

     Writing all to output data dir ./test.save/ :
     XML data file, charge density, pseudopotentials, collected wavefunctions
 
     init_run     :      3.00s CPU      3.10s WALL (       1 calls)
     electrons    :    170.39s CPU    172.20s WALL (       1 calls)

     Called by init_run:
     wfcinit      :      2.86s CPU      2.92s WALL (       1 calls)
     potinit      :      0.01s CPU      0.01s WALL (       1 calls)
     hinit0       :      0.05s CPU      0.06s WALL (       1 calls)

     Called by electrons:
     c_bands      :    155.68s CPU    157.07s WALL (      16 calls)
     sum_band     :     14.20s CPU     14.53s WALL (      16 calls)
     v_of_rho     :      0.14s CPU      0.15s WALL (      17 calls)
     newd         :      0.30s CPU      0.32s WALL (      17 calls)
     mix_rho      :      0.02s CPU      0.03s WALL (      16 calls)
     energy_londo :      0.03s CPU      0.03s WALL (       1 calls)

     Called by c_bands:
     init_us_2    :      2.08s CPU      2.13s WALL (    2673 calls)
     cegterg      :    125.12s CPU    126.35s WALL (    1296 calls)

     Called by *egterg:
     cdiaghg      :     45.10s CPU     45.25s WALL (    6742 calls)
     h_psi        :     58.39s CPU     59.35s WALL (    6823 calls)
     s_psi        :      7.37s CPU      7.43s WALL (    6823 calls)
     g_psi        :      0.27s CPU      0.27s WALL (    5446 calls)

     Called by h_psi:
     h_psi:calbec :      7.60s CPU      7.70s WALL (    6823 calls)
     vloc_psi     :     42.91s CPU     43.71s WALL (    6823 calls)
     add_vuspsi   :      7.44s CPU      7.51s WALL (    6823 calls)

     General routines
     calbec       :     10.15s CPU     10.28s WALL (    8119 calls)
     fft          :      0.06s CPU      0.07s WALL (     219 calls)
     ffts         :      0.00s CPU      0.01s WALL (      33 calls)
     fftw         :     44.22s CPU     45.04s WALL (  757044 calls)
     interpolate  :      0.01s CPU      0.01s WALL (      17 calls)
 
     Parallel routines
 
     PWSCF        :    175.35s CPU    190.52s WALL

 
   This run was terminated on:  14:30:32   9May2025            

=------------------------------------------------------------------------------=
   JOB DONE.
=------------------------------------------------------------------------------=
